+ 0.5 7 1 tcp 40 ------- 0 7.0 2.0 0 0
- 0.5 7 1 tcp 40 ------- 0 7.0 2.0 0 0
r 0.520032 7 1 tcp 40 ------- 0 7.0 2.0 0 0
+ 0.520032 1 0 tcp 40 ------- 0 7.0 2.0 0 0
- 0.520032 1 0 tcp 40 ------- 0 7.0 2.0 0 0
r 0.560245 1 0 tcp 40 ------- 0 7.0 2.0 0 0
+ 0.560245 0 2 tcp 40 ------- 0 7.0 2.0 0 0
- 0.560245 0 2 tcp 40 ------- 0 7.0 2.0 0 0
r 0.580277 0 2 tcp 40 ------- 0 7.0 2.0 0 0
+ 0.580277 2 0 ack 40 ------- 0 2.0 7.0 0 1
- 0.580277 2 0 ack 40 ------- 0 2.0 7.0 0 1
r 0.600309 2 0 ack 40 ------- 0 2.0 7.0 0 1
+ 0.600309 0 1 ack 40 ------- 0 2.0 7.0 0 1
- 0.600309 0 1 ack 40 ------- 0 2.0 7.0 0 1
r 0.640523 0 1 ack 40 ------- 0 2.0 7.0 0 1
+ 0.640523 1 7 ack 40 ------- 0 2.0 7.0 0 1
- 0.640523 1 7 ack 40 ------- 0 2.0 7.0 0 1
r 0.660555 1 7 ack 40 ------- 0 2.0 7.0 0 1
+ 0.660555 7 1 tcp 1040 ------- 0 7.0 2.0 1 2
- 0.660555 7 1 tcp 1040 ------- 0 7.0 2.0 1 2
+ 0.660555 7 1 tcp 1040 ------- 0 7.0 2.0 2 3
- 0.661387 7 1 tcp 1040 ------- 0 7.0 2.0 2 3
r 0.681387 7 1 tcp 1040 ------- 0 7.0 2.0 1 2
+ 0.681387 1 0 tcp 1040 ------- 0 7.0 2.0 1 2
- 0.681387 1 0 tcp 1040 ------- 0 7.0 2.0 1 2
r 0.682219 7 1 tcp 1040 ------- 0 7.0 2.0 2 3
+ 0.682219 1 0 tcp 1040 ------- 0 7.0 2.0 2 3
- 0.686933 1 0 tcp 1040 ------- 0 7.0 2.0 2 3
r 0.726933 1 0 tcp 1040 ------- 0 7.0 2.0 1 2
+ 0.726933 0 2 tcp 1040 ------- 0 7.0 2.0 1 2
- 0.726933 0 2 tcp 1040 ------- 0 7.0 2.0 1 2
r 0.73248 1 0 tcp 1040 ------- 0 7.0 2.0 2 3
+ 0.73248 0 2 tcp 1040 ------- 0 7.0 2.0 2 3
- 0.73248 0 2 tcp 1040 ------- 0 7.0 2.0 2 3
r 0.747765 0 2 tcp 1040 ------- 0 7.0 2.0 1 2
+ 0.747765 2 0 ack 40 ------- 0 2.0 7.0 1 4
- 0.747765 2 0 ack 40 ------- 0 2.0 7.0 1 4
r 0.753312 0 2 tcp 1040 ------- 0 7.0 2.0 2 3
+ 0.753312 2 0 ack 40 ------- 0 2.0 7.0 2 5
- 0.753312 2 0 ack 40 ------- 0 2.0 7.0 2 5
r 0.767797 2 0 ack 40 ------- 0 2.0 7.0 1 4
+ 0.767797 0 1 ack 40 ------- 0 2.0 7.0 1 4
- 0.767797 0 1 ack 40 ------- 0 2.0 7.0 1 4
r 0.773344 2 0 ack 40 ------- 0 2.0 7.0 2 5
+ 0.773344 0 1 ack 40 ------- 0 2.0 7.0 2 5
- 0.773344 0 1 ack 40 ------- 0 2.0 7.0 2 5
r 0.808011 0 1 ack 40 ------- 0 2.0 7.0 1 4
+ 0.808011 1 7 ack 40 ------- 0 2.0 7.0 1 4
- 0.808011 1 7 ack 40 ------- 0 2.0 7.0 1 4
r 0.813557 0 1 ack 40 ------- 0 2.0 7.0 2 5
+ 0.813557 1 7 ack 40 ------- 0 2.0 7.0 2 5
- 0.813557 1 7 ack 40 ------- 0 2.0 7.0 2 5
r 0.828043 1 7 ack 40 ------- 0 2.0 7.0 1 4
+ 0.828043 7 1 tcp 1040 ------- 0 7.0 2.0 3 6
- 0.828043 7 1 tcp 1040 ------- 0 7.0 2.0 3 6
+ 0.828043 7 1 tcp 1040 ------- 0 7.0 2.0 4 7
- 0.828875 7 1 tcp 1040 ------- 0 7.0 2.0 4 7
r 0.833589 1 7 ack 40 ------- 0 2.0 7.0 2 5
+ 0.833589 7 1 tcp 1040 ------- 0 7.0 2.0 5 8
- 0.833589 7 1 tcp 1040 ------- 0 7.0 2.0 5 8
+ 0.833589 7 1 tcp 1040 ------- 0 7.0 2.0 6 9
- 0.834421 7 1 tcp 1040 ------- 0 7.0 2.0 6 9
r 0.848875 7 1 tcp 1040 ------- 0 7.0 2.0 3 6
+ 0.848875 1 0 tcp 1040 ------- 0 7.0 2.0 3 6
- 0.848875 1 0 tcp 1040 ------- 0 7.0 2.0 3 6
r 0.849707 7 1 tcp 1040 ------- 0 7.0 2.0 4 7
+ 0.849707 1 0 tcp 1040 ------- 0 7.0 2.0 4 7
r 0.854421 7 1 tcp 1040 ------- 0 7.0 2.0 5 8
+ 0.854421 1 0 tcp 1040 ------- 0 7.0 2.0 5 8
- 0.854421 1 0 tcp 1040 ------- 0 7.0 2.0 4 7
r 0.855253 7 1 tcp 1040 ------- 0 7.0 2.0 6 9
+ 0.855253 1 0 tcp 1040 ------- 0 7.0 2.0 6 9
- 0.859968 1 0 tcp 1040 ------- 0 7.0 2.0 5 8
- 0.865515 1 0 tcp 1040 ------- 0 7.0 2.0 6 9
r 0.894421 1 0 tcp 1040 ------- 0 7.0 2.0 3 6
+ 0.894421 0 2 tcp 1040 ------- 0 7.0 2.0 3 6
- 0.894421 0 2 tcp 1040 ------- 0 7.0 2.0 3 6
r 0.899968 1 0 tcp 1040 ------- 0 7.0 2.0 4 7
+ 0.899968 0 2 tcp 1040 ------- 0 7.0 2.0 4 7
- 0.899968 0 2 tcp 1040 ------- 0 7.0 2.0 4 7
r 0.905515 1 0 tcp 1040 ------- 0 7.0 2.0 5 8
+ 0.905515 0 2 tcp 1040 ------- 0 7.0 2.0 5 8
- 0.905515 0 2 tcp 1040 ------- 0 7.0 2.0 5 8
r 0.911061 1 0 tcp 1040 ------- 0 7.0 2.0 6 9
+ 0.911061 0 2 tcp 1040 ------- 0 7.0 2.0 6 9
- 0.911061 0 2 tcp 1040 ------- 0 7.0 2.0 6 9
r 0.915253 0 2 tcp 1040 ------- 0 7.0 2.0 3 6
+ 0.915253 2 0 ack 40 ------- 0 2.0 7.0 3 10
- 0.915253 2 0 ack 40 ------- 0 2.0 7.0 3 10
r 0.9208 0 2 tcp 1040 ------- 0 7.0 2.0 4 7
+ 0.9208 2 0 ack 40 ------- 0 2.0 7.0 4 11
- 0.9208 2 0 ack 40 ------- 0 2.0 7.0 4 11
r 0.926347 0 2 tcp 1040 ------- 0 7.0 2.0 5 8
+ 0.926347 2 0 ack 40 ------- 0 2.0 7.0 5 12
- 0.926347 2 0 ack 40 ------- 0 2.0 7.0 5 12
r 0.931893 0 2 tcp 1040 ------- 0 7.0 2.0 6 9
+ 0.931893 2 0 ack 40 ------- 0 2.0 7.0 6 13
- 0.931893 2 0 ack 40 ------- 0 2.0 7.0 6 13
r 0.935285 2 0 ack 40 ------- 0 2.0 7.0 3 10
+ 0.935285 0 1 ack 40 ------- 0 2.0 7.0 3 10
- 0.935285 0 1 ack 40 ------- 0 2.0 7.0 3 10
r 0.940832 2 0 ack 40 ------- 0 2.0 7.0 4 11
+ 0.940832 0 1 ack 40 ------- 0 2.0 7.0 4 11
- 0.940832 0 1 ack 40 ------- 0 2.0 7.0 4 11
r 0.946379 2 0 ack 40 ------- 0 2.0 7.0 5 12
+ 0.946379 0 1 ack 40 ------- 0 2.0 7.0 5 12
- 0.946379 0 1 ack 40 ------- 0 2.0 7.0 5 12
r 0.951925 2 0 ack 40 ------- 0 2.0 7.0 6 13
+ 0.951925 0 1 ack 40 ------- 0 2.0 7.0 6 13
- 0.951925 0 1 ack 40 ------- 0 2.0 7.0 6 13
r 0.975499 0 1 ack 40 ------- 0 2.0 7.0 3 10
+ 0.975499 1 7 ack 40 ------- 0 2.0 7.0 3 10
- 0.975499 1 7 ack 40 ------- 0 2.0 7.0 3 10
r 0.981045 0 1 ack 40 ------- 0 2.0 7.0 4 11
+ 0.981045 1 7 ack 40 ------- 0 2.0 7.0 4 11
- 0.981045 1 7 ack 40 ------- 0 2.0 7.0 4 11
r 0.986592 0 1 ack 40 ------- 0 2.0 7.0 5 12
+ 0.986592 1 7 ack 40 ------- 0 2.0 7.0 5 12
- 0.986592 1 7 ack 40 ------- 0 2.0 7.0 5 12
r 0.992139 0 1 ack 40 ------- 0 2.0 7.0 6 13
+ 0.992139 1 7 ack 40 ------- 0 2.0 7.0 6 13
- 0.992139 1 7 ack 40 ------- 0 2.0 7.0 6 13
r 0.995531 1 7 ack 40 ------- 0 2.0 7.0 3 10
+ 0.995531 7 1 tcp 1040 ------- 0 7.0 2.0 7 14
- 0.995531 7 1 tcp 1040 ------- 0 7.0 2.0 7 14
+ 0.995531 7 1 tcp 1040 ------- 0 7.0 2.0 8 15
- 0.996363 7 1 tcp 1040 ------- 0 7.0 2.0 8 15
+ 1 8 1 tcp 40 ------- 1 8.0 3.0 0 16
- 1 8 1 tcp 40 ------- 1 8.0 3.0 0 16
r 1.001077 1 7 ack 40 ------- 0 2.0 7.0 4 11
+ 1.001077 7 1 tcp 1040 ------- 0 7.0 2.0 9 17
- 1.001077 7 1 tcp 1040 ------- 0 7.0 2.0 9 17
+ 1.001077 7 1 tcp 1040 ------- 0 7.0 2.0 10 18
- 1.001909 7 1 tcp 1040 ------- 0 7.0 2.0 10 18
r 1.006624 1 7 ack 40 ------- 0 2.0 7.0 5 12
+ 1.006624 7 1 tcp 1040 ------- 0 7.0 2.0 11 19
- 1.006624 7 1 tcp 1040 ------- 0 7.0 2.0 11 19
+ 1.006624 7 1 tcp 1040 ------- 0 7.0 2.0 12 20
- 1.007456 7 1 tcp 1040 ------- 0 7.0 2.0 12 20
r 1.012171 1 7 ack 40 ------- 0 2.0 7.0 6 13
+ 1.012171 7 1 tcp 1040 ------- 0 7.0 2.0 13 21
- 1.012171 7 1 tcp 1040 ------- 0 7.0 2.0 13 21
+ 1.012171 7 1 tcp 1040 ------- 0 7.0 2.0 14 22
- 1.013003 7 1 tcp 1040 ------- 0 7.0 2.0 14 22
r 1.016363 7 1 tcp 1040 ------- 0 7.0 2.0 7 14
+ 1.016363 1 0 tcp 1040 ------- 0 7.0 2.0 7 14
- 1.016363 1 0 tcp 1040 ------- 0 7.0 2.0 7 14
r 1.017195 7 1 tcp 1040 ------- 0 7.0 2.0 8 15
+ 1.017195 1 0 tcp 1040 ------- 0 7.0 2.0 8 15
r 1.020032 8 1 tcp 40 ------- 1 8.0 3.0 0 16
+ 1.020032 1 0 tcp 40 ------- 1 8.0 3.0 0 16
r 1.021909 7 1 tcp 1040 ------- 0 7.0 2.0 9 17
+ 1.021909 1 0 tcp 1040 ------- 0 7.0 2.0 9 17
- 1.021909 1 0 tcp 1040 ------- 0 7.0 2.0 8 15
r 1.022741 7 1 tcp 1040 ------- 0 7.0 2.0 10 18
+ 1.022741 1 0 tcp 1040 ------- 0 7.0 2.0 10 18
- 1.027456 1 0 tcp 40 ------- 1 8.0 3.0 0 16
r 1.027456 7 1 tcp 1040 ------- 0 7.0 2.0 11 19
+ 1.027456 1 0 tcp 1040 ------- 0 7.0 2.0 11 19
- 1.027669 1 0 tcp 1040 ------- 0 7.0 2.0 9 17
r 1.028288 7 1 tcp 1040 ------- 0 7.0 2.0 12 20
+ 1.028288 1 0 tcp 1040 ------- 0 7.0 2.0 12 20
r 1.033003 7 1 tcp 1040 ------- 0 7.0 2.0 13 21
+ 1.033003 1 0 tcp 1040 ------- 0 7.0 2.0 13 21
- 1.033216 1 0 tcp 1040 ------- 0 7.0 2.0 10 18
r 1.033835 7 1 tcp 1040 ------- 0 7.0 2.0 14 22
+ 1.033835 1 0 tcp 1040 ------- 0 7.0 2.0 14 22
- 1.038763 1 0 tcp 1040 ------- 0 7.0 2.0 11 19
- 1.044309 1 0 tcp 1040 ------- 0 7.0 2.0 12 20
- 1.049856 1 0 tcp 1040 ------- 0 7.0 2.0 13 21
- 1.055403 1 0 tcp 1040 ------- 0 7.0 2.0 14 22
r 1.061909 1 0 tcp 1040 ------- 0 7.0 2.0 7 14
+ 1.061909 0 2 tcp 1040 ------- 0 7.0 2.0 7 14
- 1.061909 0 2 tcp 1040 ------- 0 7.0 2.0 7 14
r 1.067456 1 0 tcp 1040 ------- 0 7.0 2.0 8 15
+ 1.067456 0 2 tcp 1040 ------- 0 7.0 2.0 8 15
- 1.067456 0 2 tcp 1040 ------- 0 7.0 2.0 8 15
r 1.067669 1 0 tcp 40 ------- 1 8.0 3.0 0 16
+ 1.067669 0 3 tcp 40 ------- 1 8.0 3.0 0 16
- 1.067669 0 3 tcp 40 ------- 1 8.0 3.0 0 16
r 1.073216 1 0 tcp 1040 ------- 0 7.0 2.0 9 17
+ 1.073216 0 2 tcp 1040 ------- 0 7.0 2.0 9 17
- 1.073216 0 2 tcp 1040 ------- 0 7.0 2.0 9 17
r 1.078763 1 0 tcp 1040 ------- 0 7.0 2.0 10 18
+ 1.078763 0 2 tcp 1040 ------- 0 7.0 2.0 10 18
- 1.078763 0 2 tcp 1040 ------- 0 7.0 2.0 10 18
r 1.082741 0 2 tcp 1040 ------- 0 7.0 2.0 7 14
+ 1.082741 2 0 ack 40 ------- 0 2.0 7.0 7 23
- 1.082741 2 0 ack 40 ------- 0 2.0 7.0 7 23
r 1.084309 1 0 tcp 1040 ------- 0 7.0 2.0 11 19
+ 1.084309 0 2 tcp 1040 ------- 0 7.0 2.0 11 19
- 1.084309 0 2 tcp 1040 ------- 0 7.0 2.0 11 19
r 1.087701 0 3 tcp 40 ------- 1 8.0 3.0 0 16
+ 1.087701 3 0 ack 40 ------- 1 3.0 8.0 0 24
- 1.087701 3 0 ack 40 ------- 1 3.0 8.0 0 24
r 1.088288 0 2 tcp 1040 ------- 0 7.0 2.0 8 15
+ 1.088288 2 0 ack 40 ------- 0 2.0 7.0 8 25
- 1.088288 2 0 ack 40 ------- 0 2.0 7.0 8 25
r 1.089856 1 0 tcp 1040 ------- 0 7.0 2.0 12 20
+ 1.089856 0 2 tcp 1040 ------- 0 7.0 2.0 12 20
- 1.089856 0 2 tcp 1040 ------- 0 7.0 2.0 12 20
r 1.094048 0 2 tcp 1040 ------- 0 7.0 2.0 9 17
+ 1.094048 2 0 ack 40 ------- 0 2.0 7.0 9 26
- 1.094048 2 0 ack 40 ------- 0 2.0 7.0 9 26
r 1.095403 1 0 tcp 1040 ------- 0 7.0 2.0 13 21
+ 1.095403 0 2 tcp 1040 ------- 0 7.0 2.0 13 21
- 1.095403 0 2 tcp 1040 ------- 0 7.0 2.0 13 21
r 1.099595 0 2 tcp 1040 ------- 0 7.0 2.0 10 18
+ 1.099595 2 0 ack 40 ------- 0 2.0 7.0 10 27
- 1.099595 2 0 ack 40 ------- 0 2.0 7.0 10 27
r 1.100949 1 0 tcp 1040 ------- 0 7.0 2.0 14 22
+ 1.100949 0 2 tcp 1040 ------- 0 7.0 2.0 14 22
- 1.100949 0 2 tcp 1040 ------- 0 7.0 2.0 14 22
r 1.102773 2 0 ack 40 ------- 0 2.0 7.0 7 23
+ 1.102773 0 1 ack 40 ------- 0 2.0 7.0 7 23
- 1.102773 0 1 ack 40 ------- 0 2.0 7.0 7 23
r 1.105141 0 2 tcp 1040 ------- 0 7.0 2.0 11 19
+ 1.105141 2 0 ack 40 ------- 0 2.0 7.0 11 28
- 1.105141 2 0 ack 40 ------- 0 2.0 7.0 11 28
r 1.107733 3 0 ack 40 ------- 1 3.0 8.0 0 24
+ 1.107733 0 1 ack 40 ------- 1 3.0 8.0 0 24
- 1.107733 0 1 ack 40 ------- 1 3.0 8.0 0 24
r 1.10832 2 0 ack 40 ------- 0 2.0 7.0 8 25
+ 1.10832 0 1 ack 40 ------- 0 2.0 7.0 8 25
- 1.10832 0 1 ack 40 ------- 0 2.0 7.0 8 25
r 1.110688 0 2 tcp 1040 ------- 0 7.0 2.0 12 20
+ 1.110688 2 0 ack 40 ------- 0 2.0 7.0 12 29
- 1.110688 2 0 ack 40 ------- 0 2.0 7.0 12 29
r 1.11408 2 0 ack 40 ------- 0 2.0 7.0 9 26
+ 1.11408 0 1 ack 40 ------- 0 2.0 7.0 9 26
- 1.11408 0 1 ack 40 ------- 0 2.0 7.0 9 26
r 1.116235 0 2 tcp 1040 ------- 0 7.0 2.0 13 21
+ 1.116235 2 0 ack 40 ------- 0 2.0 7.0 13 30
- 1.116235 2 0 ack 40 ------- 0 2.0 7.0 13 30
r 1.119627 2 0 ack 40 ------- 0 2.0 7.0 10 27
+ 1.119627 0 1 ack 40 ------- 0 2.0 7.0 10 27
- 1.119627 0 1 ack 40 ------- 0 2.0 7.0 10 27
r 1.121781 0 2 tcp 1040 ------- 0 7.0 2.0 14 22
+ 1.121781 2 0 ack 40 ------- 0 2.0 7.0 14 31
- 1.121781 2 0 ack 40 ------- 0 2.0 7.0 14 31
r 1.125173 2 0 ack 40 ------- 0 2.0 7.0 11 28
+ 1.125173 0 1 ack 40 ------- 0 2.0 7.0 11 28
- 1.125173 0 1 ack 40 ------- 0 2.0 7.0 11 28
r 1.13072 2 0 ack 40 ------- 0 2.0 7.0 12 29
+ 1.13072 0 1 ack 40 ------- 0 2.0 7.0 12 29
- 1.13072 0 1 ack 40 ------- 0 2.0 7.0 12 29
r 1.136267 2 0 ack 40 ------- 0 2.0 7.0 13 30
+ 1.136267 0 1 ack 40 ------- 0 2.0 7.0 13 30
- 1.136267 0 1 ack 40 ------- 0 2.0 7.0 13 30
r 1.141813 2 0 ack 40 ------- 0 2.0 7.0 14 31
+ 1.141813 0 1 ack 40 ------- 0 2.0 7.0 14 31
- 1.141813 0 1 ack 40 ------- 0 2.0 7.0 14 31
r 1.142987 0 1 ack 40 ------- 0 2.0 7.0 7 23
+ 1.142987 1 7 ack 40 ------- 0 2.0 7.0 7 23
- 1.142987 1 7 ack 40 ------- 0 2.0 7.0 7 23
r 1.147947 0 1 ack 40 ------- 1 3.0 8.0 0 24
+ 1.147947 1 8 ack 40 ------- 1 3.0 8.0 0 24
- 1.147947 1 8 ack 40 ------- 1 3.0 8.0 0 24
r 1.148533 0 1 ack 40 ------- 0 2.0 7.0 8 25
+ 1.148533 1 7 ack 40 ------- 0 2.0 7.0 8 25
- 1.148533 1 7 ack 40 ------- 0 2.0 7.0 8 25
r 1.154293 0 1 ack 40 ------- 0 2.0 7.0 9 26
+ 1.154293 1 7 ack 40 ------- 0 2.0 7.0 9 26
- 1.154293 1 7 ack 40 ------- 0 2.0 7.0 9 26
r 1.15984 0 1 ack 40 ------- 0 2.0 7.0 10 27
+ 1.15984 1 7 ack 40 ------- 0 2.0 7.0 10 27
- 1.15984 1 7 ack 40 ------- 0 2.0 7.0 10 27
r 1.163019 1 7 ack 40 ------- 0 2.0 7.0 7 23
+ 1.163019 7 1 tcp 1040 ------- 0 7.0 2.0 15 32
- 1.163019 7 1 tcp 1040 ------- 0 7.0 2.0 15 32
+ 1.163019 7 1 tcp 1040 ------- 0 7.0 2.0 16 33
- 1.163851 7 1 tcp 1040 ------- 0 7.0 2.0 16 33
r 1.165387 0 1 ack 40 ------- 0 2.0 7.0 11 28
+ 1.165387 1 7 ack 40 ------- 0 2.0 7.0 11 28
- 1.165387 1 7 ack 40 ------- 0 2.0 7.0 11 28
r 1.167979 1 8 ack 40 ------- 1 3.0 8.0 0 24
+ 1.167979 8 1 tcp 1040 ------- 1 8.0 3.0 1 34
- 1.167979 8 1 tcp 1040 ------- 1 8.0 3.0 1 34
+ 1.167979 8 1 tcp 1040 ------- 1 8.0 3.0 2 35
r 1.168565 1 7 ack 40 ------- 0 2.0 7.0 8 25
+ 1.168565 7 1 tcp 1040 ------- 0 7.0 2.0 17 36
- 1.168565 7 1 tcp 1040 ------- 0 7.0 2.0 17 36
+ 1.168565 7 1 tcp 1040 ------- 0 7.0 2.0 18 37
- 1.168811 8 1 tcp 1040 ------- 1 8.0 3.0 2 35
- 1.169397 7 1 tcp 1040 ------- 0 7.0 2.0 18 37
r 1.170933 0 1 ack 40 ------- 0 2.0 7.0 12 29
+ 1.170933 1 7 ack 40 ------- 0 2.0 7.0 12 29
- 1.170933 1 7 ack 40 ------- 0 2.0 7.0 12 29
r 1.174325 1 7 ack 40 ------- 0 2.0 7.0 9 26
+ 1.174325 7 1 tcp 1040 ------- 0 7.0 2.0 19 38
- 1.174325 7 1 tcp 1040 ------- 0 7.0 2.0 19 38
+ 1.174325 7 1 tcp 1040 ------- 0 7.0 2.0 20 39
- 1.175157 7 1 tcp 1040 ------- 0 7.0 2.0 20 39
r 1.17648 0 1 ack 40 ------- 0 2.0 7.0 13 30
+ 1.17648 1 7 ack 40 ------- 0 2.0 7.0 13 30
- 1.17648 1 7 ack 40 ------- 0 2.0 7.0 13 30
r 1.179872 1 7 ack 40 ------- 0 2.0 7.0 10 27
+ 1.179872 7 1 tcp 1040 ------- 0 7.0 2.0 21 40
- 1.179872 7 1 tcp 1040 ------- 0 7.0 2.0 21 40
+ 1.179872 7 1 tcp 1040 ------- 0 7.0 2.0 22 41
- 1.180704 7 1 tcp 1040 ------- 0 7.0 2.0 22 41
r 1.182027 0 1 ack 40 ------- 0 2.0 7.0 14 31
+ 1.182027 1 7 ack 40 ------- 0 2.0 7.0 14 31
- 1.182027 1 7 ack 40 ------- 0 2.0 7.0 14 31
r 1.183851 7 1 tcp 1040 ------- 0 7.0 2.0 15 32
+ 1.183851 1 0 tcp 1040 ------- 0 7.0 2.0 15 32
- 1.183851 1 0 tcp 1040 ------- 0 7.0 2.0 15 32
r 1.184683 7 1 tcp 1040 ------- 0 7.0 2.0 16 33
+ 1.184683 1 0 tcp 1040 ------- 0 7.0 2.0 16 33
r 1.185419 1 7 ack 40 ------- 0 2.0 7.0 11 28
+ 1.185419 7 1 tcp 1040 ------- 0 7.0 2.0 23 42
- 1.185419 7 1 tcp 1040 ------- 0 7.0 2.0 23 42
+ 1.185419 7 1 tcp 1040 ------- 0 7.0 2.0 24 43
- 1.186251 7 1 tcp 1040 ------- 0 7.0 2.0 24 43
r 1.188811 8 1 tcp 1040 ------- 1 8.0 3.0 1 34
+ 1.188811 1 0 tcp 1040 ------- 1 8.0 3.0 1 34
r 1.189397 7 1 tcp 1040 ------- 0 7.0 2.0 17 36
+ 1.189397 1 0 tcp 1040 ------- 0 7.0 2.0 17 36
- 1.189397 1 0 tcp 1040 ------- 0 7.0 2.0 16 33
r 1.189643 8 1 tcp 1040 ------- 1 8.0 3.0 2 35
+ 1.189643 1 0 tcp 1040 ------- 1 8.0 3.0 2 35
r 1.190229 7 1 tcp 1040 ------- 0 7.0 2.0 18 37
+ 1.190229 1 0 tcp 1040 ------- 0 7.0 2.0 18 37
r 1.190965 1 7 ack 40 ------- 0 2.0 7.0 12 29
+ 1.190965 7 1 tcp 1040 ------- 0 7.0 2.0 25 44
- 1.190965 7 1 tcp 1040 ------- 0 7.0 2.0 25 44
+ 1.190965 7 1 tcp 1040 ------- 0 7.0 2.0 26 45
- 1.191797 7 1 tcp 1040 ------- 0 7.0 2.0 26 45
- 1.194944 1 0 tcp 1040 ------- 1 8.0 3.0 1 34
r 1.195157 7 1 tcp 1040 ------- 0 7.0 2.0 19 38
+ 1.195157 1 0 tcp 1040 ------- 0 7.0 2.0 19 38
r 1.195989 7 1 tcp 1040 ------- 0 7.0 2.0 20 39
+ 1.195989 1 0 tcp 1040 ------- 0 7.0 2.0 20 39
r 1.196512 1 7 ack 40 ------- 0 2.0 7.0 13 30
+ 1.196512 7 1 tcp 1040 ------- 0 7.0 2.0 27 46
- 1.196512 7 1 tcp 1040 ------- 0 7.0 2.0 27 46
+ 1.196512 7 1 tcp 1040 ------- 0 7.0 2.0 28 47
- 1.197344 7 1 tcp 1040 ------- 0 7.0 2.0 28 47
- 1.200491 1 0 tcp 1040 ------- 0 7.0 2.0 17 36
r 1.200704 7 1 tcp 1040 ------- 0 7.0 2.0 21 40
+ 1.200704 1 0 tcp 1040 ------- 0 7.0 2.0 21 40
r 1.201536 7 1 tcp 1040 ------- 0 7.0 2.0 22 41
+ 1.201536 1 0 tcp 1040 ------- 0 7.0 2.0 22 41
r 1.202059 1 7 ack 40 ------- 0 2.0 7.0 14 31
+ 1.202059 7 1 tcp 1040 ------- 0 7.0 2.0 29 48
- 1.202059 7 1 tcp 1040 ------- 0 7.0 2.0 29 48
+ 1.202059 7 1 tcp 1040 ------- 0 7.0 2.0 30 49
- 1.202891 7 1 tcp 1040 ------- 0 7.0 2.0 30 49
- 1.206037 1 0 tcp 1040 ------- 1 8.0 3.0 2 35
r 1.206251 7 1 tcp 1040 ------- 0 7.0 2.0 23 42
+ 1.206251 1 0 tcp 1040 ------- 0 7.0 2.0 23 42
r 1.207083 7 1 tcp 1040 ------- 0 7.0 2.0 24 43
+ 1.207083 1 0 tcp 1040 ------- 0 7.0 2.0 24 43
- 1.211584 1 0 tcp 1040 ------- 0 7.0 2.0 18 37
r 1.211797 7 1 tcp 1040 ------- 0 7.0 2.0 25 44
+ 1.211797 1 0 tcp 1040 ------- 0 7.0 2.0 25 44
r 1.212629 7 1 tcp 1040 ------- 0 7.0 2.0 26 45
+ 1.212629 1 0 tcp 1040 ------- 0 7.0 2.0 26 45
- 1.217131 1 0 tcp 1040 ------- 0 7.0 2.0 19 38
r 1.217344 7 1 tcp 1040 ------- 0 7.0 2.0 27 46
+ 1.217344 1 0 tcp 1040 ------- 0 7.0 2.0 27 46
r 1.218176 7 1 tcp 1040 ------- 0 7.0 2.0 28 47
+ 1.218176 1 0 tcp 1040 ------- 0 7.0 2.0 28 47
- 1.222677 1 0 tcp 1040 ------- 0 7.0 2.0 20 39
r 1.222891 7 1 tcp 1040 ------- 0 7.0 2.0 29 48
+ 1.222891 1 0 tcp 1040 ------- 0 7.0 2.0 29 48
r 1.223723 7 1 tcp 1040 ------- 0 7.0 2.0 30 49
+ 1.223723 1 0 tcp 1040 ------- 0 7.0 2.0 30 49
- 1.228224 1 0 tcp 1040 ------- 0 7.0 2.0 21 40
r 1.229397 1 0 tcp 1040 ------- 0 7.0 2.0 15 32
+ 1.229397 0 2 tcp 1040 ------- 0 7.0 2.0 15 32
- 1.229397 0 2 tcp 1040 ------- 0 7.0 2.0 15 32
- 1.233771 1 0 tcp 1040 ------- 0 7.0 2.0 22 41
r 1.234944 1 0 tcp 1040 ------- 0 7.0 2.0 16 33
+ 1.234944 0 2 tcp 1040 ------- 0 7.0 2.0 16 33
- 1.234944 0 2 tcp 1040 ------- 0 7.0 2.0 16 33
- 1.239317 1 0 tcp 1040 ------- 0 7.0 2.0 23 42
r 1.240491 1 0 tcp 1040 ------- 1 8.0 3.0 1 34
+ 1.240491 0 3 tcp 1040 ------- 1 8.0 3.0 1 34
- 1.240491 0 3 tcp 1040 ------- 1 8.0 3.0 1 34
- 1.244864 1 0 tcp 1040 ------- 0 7.0 2.0 24 43
r 1.246037 1 0 tcp 1040 ------- 0 7.0 2.0 17 36
+ 1.246037 0 2 tcp 1040 ------- 0 7.0 2.0 17 36
- 1.246037 0 2 tcp 1040 ------- 0 7.0 2.0 17 36
r 1.250229 0 2 tcp 1040 ------- 0 7.0 2.0 15 32
+ 1.250229 2 0 ack 40 ------- 0 2.0 7.0 15 50
- 1.250229 2 0 ack 40 ------- 0 2.0 7.0 15 50
- 1.250411 1 0 tcp 1040 ------- 0 7.0 2.0 25 44
r 1.251584 1 0 tcp 1040 ------- 1 8.0 3.0 2 35
+ 1.251584 0 3 tcp 1040 ------- 1 8.0 3.0 2 35
- 1.251584 0 3 tcp 1040 ------- 1 8.0 3.0 2 35
r 1.255776 0 2 tcp 1040 ------- 0 7.0 2.0 16 33
+ 1.255776 2 0 ack 40 ------- 0 2.0 7.0 16 51
- 1.255776 2 0 ack 40 ------- 0 2.0 7.0 16 51
- 1.255957 1 0 tcp 1040 ------- 0 7.0 2.0 26 45
r 1.257131 1 0 tcp 1040 ------- 0 7.0 2.0 18 37
+ 1.257131 0 2 tcp 1040 ------- 0 7.0 2.0 18 37
- 1.257131 0 2 tcp 1040 ------- 0 7.0 2.0 18 37
r 1.261323 0 3 tcp 1040 ------- 1 8.0 3.0 1 34
+ 1.261323 3 0 ack 40 ------- 1 3.0 8.0 1 52
- 1.261323 3 0 ack 40 ------- 1 3.0 8.0 1 52
- 1.261504 1 0 tcp 1040 ------- 0 7.0 2.0 27 46
r 1.262677 1 0 tcp 1040 ------- 0 7.0 2.0 19 38
+ 1.262677 0 2 tcp 1040 ------- 0 7.0 2.0 19 38
- 1.262677 0 2 tcp 1040 ------- 0 7.0 2.0 19 38
r 1.266869 0 2 tcp 1040 ------- 0 7.0 2.0 17 36
+ 1.266869 2 0 ack 40 ------- 0 2.0 7.0 17 53
- 1.266869 2 0 ack 40 ------- 0 2.0 7.0 17 53
- 1.267051 1 0 tcp 1040 ------- 0 7.0 2.0 28 47
r 1.268224 1 0 tcp 1040 ------- 0 7.0 2.0 20 39
+ 1.268224 0 2 tcp 1040 ------- 0 7.0 2.0 20 39
- 1.268224 0 2 tcp 1040 ------- 0 7.0 2.0 20 39
r 1.270261 2 0 ack 40 ------- 0 2.0 7.0 15 50
+ 1.270261 0 1 ack 40 ------- 0 2.0 7.0 15 50
- 1.270261 0 1 ack 40 ------- 0 2.0 7.0 15 50
r 1.272416 0 3 tcp 1040 ------- 1 8.0 3.0 2 35
+ 1.272416 3 0 ack 40 ------- 1 3.0 8.0 2 54
- 1.272416 3 0 ack 40 ------- 1 3.0 8.0 2 54
- 1.272597 1 0 tcp 1040 ------- 0 7.0 2.0 29 48
r 1.273771 1 0 tcp 1040 ------- 0 7.0 2.0 21 40
+ 1.273771 0 2 tcp 1040 ------- 0 7.0 2.0 21 40
- 1.273771 0 2 tcp 1040 ------- 0 7.0 2.0 21 40
r 1.275808 2 0 ack 40 ------- 0 2.0 7.0 16 51
+ 1.275808 0 1 ack 40 ------- 0 2.0 7.0 16 51
- 1.275808 0 1 ack 40 ------- 0 2.0 7.0 16 51
r 1.277963 0 2 tcp 1040 ------- 0 7.0 2.0 18 37
+ 1.277963 2 0 ack 40 ------- 0 2.0 7.0 18 55
- 1.277963 2 0 ack 40 ------- 0 2.0 7.0 18 55
- 1.278144 1 0 tcp 1040 ------- 0 7.0 2.0 30 49
r 1.279317 1 0 tcp 1040 ------- 0 7.0 2.0 22 41
+ 1.279317 0 2 tcp 1040 ------- 0 7.0 2.0 22 41
- 1.279317 0 2 tcp 1040 ------- 0 7.0 2.0 22 41
r 1.281355 3 0 ack 40 ------- 1 3.0 8.0 1 52
+ 1.281355 0 1 ack 40 ------- 1 3.0 8.0 1 52
- 1.281355 0 1 ack 40 ------- 1 3.0 8.0 1 52
r 1.283509 0 2 tcp 1040 ------- 0 7.0 2.0 19 38
+ 1.283509 2 0 ack 40 ------- 0 2.0 7.0 19 56
- 1.283509 2 0 ack 40 ------- 0 2.0 7.0 19 56
r 1.284864 1 0 tcp 1040 ------- 0 7.0 2.0 23 42
+ 1.284864 0 2 tcp 1040 ------- 0 7.0 2.0 23 42
- 1.284864 0 2 tcp 1040 ------- 0 7.0 2.0 23 42
r 1.286901 2 0 ack 40 ------- 0 2.0 7.0 17 53
+ 1.286901 0 1 ack 40 ------- 0 2.0 7.0 17 53
- 1.286901 0 1 ack 40 ------- 0 2.0 7.0 17 53
r 1.289056 0 2 tcp 1040 ------- 0 7.0 2.0 20 39
+ 1.289056 2 0 ack 40 ------- 0 2.0 7.0 20 57
- 1.289056 2 0 ack 40 ------- 0 2.0 7.0 20 57
r 1.290411 1 0 tcp 1040 ------- 0 7.0 2.0 24 43
+ 1.290411 0 2 tcp 1040 ------- 0 7.0 2.0 24 43
- 1.290411 0 2 tcp 1040 ------- 0 7.0 2.0 24 43
r 1.292448 3 0 ack 40 ------- 1 3.0 8.0 2 54
+ 1.292448 0 1 ack 40 ------- 1 3.0 8.0 2 54
- 1.292448 0 1 ack 40 ------- 1 3.0 8.0 2 54
r 1.294603 0 2 tcp 1040 ------- 0 7.0 2.0 21 40
+ 1.294603 2 0 ack 40 ------- 0 2.0 7.0 21 58
- 1.294603 2 0 ack 40 ------- 0 2.0 7.0 21 58
r 1.295957 1 0 tcp 1040 ------- 0 7.0 2.0 25 44
+ 1.295957 0 2 tcp 1040 ------- 0 7.0 2.0 25 44
- 1.295957 0 2 tcp 1040 ------- 0 7.0 2.0 25 44
r 1.297995 2 0 ack 40 ------- 0 2.0 7.0 18 55
+ 1.297995 0 1 ack 40 ------- 0 2.0 7.0 18 55
- 1.297995 0 1 ack 40 ------- 0 2.0 7.0 18 55
r 1.300149 0 2 tcp 1040 ------- 0 7.0 2.0 22 41
+ 1.300149 2 0 ack 40 ------- 0 2.0 7.0 22 59
- 1.300149 2 0 ack 40 ------- 0 2.0 7.0 22 59
r 1.301504 1 0 tcp 1040 ------- 0 7.0 2.0 26 45
+ 1.301504 0 2 tcp 1040 ------- 0 7.0 2.0 26 45
- 1.301504 0 2 tcp 1040 ------- 0 7.0 2.0 26 45
r 1.303541 2 0 ack 40 ------- 0 2.0 7.0 19 56
+ 1.303541 0 1 ack 40 ------- 0 2.0 7.0 19 56
- 1.303541 0 1 ack 40 ------- 0 2.0 7.0 19 56
r 1.305696 0 2 tcp 1040 ------- 0 7.0 2.0 23 42
+ 1.305696 2 0 ack 40 ------- 0 2.0 7.0 23 60
- 1.305696 2 0 ack 40 ------- 0 2.0 7.0 23 60
r 1.307051 1 0 tcp 1040 ------- 0 7.0 2.0 27 46
+ 1.307051 0 2 tcp 1040 ------- 0 7.0 2.0 27 46
- 1.307051 0 2 tcp 1040 ------- 0 7.0 2.0 27 46
r 1.309088 2 0 ack 40 ------- 0 2.0 7.0 20 57
+ 1.309088 0 1 ack 40 ------- 0 2.0 7.0 20 57
- 1.309088 0 1 ack 40 ------- 0 2.0 7.0 20 57
r 1.310475 0 1 ack 40 ------- 0 2.0 7.0 15 50
+ 1.310475 1 7 ack 40 ------- 0 2.0 7.0 15 50
- 1.310475 1 7 ack 40 ------- 0 2.0 7.0 15 50
r 1.311243 0 2 tcp 1040 ------- 0 7.0 2.0 24 43
+ 1.311243 2 0 ack 40 ------- 0 2.0 7.0 24 61
- 1.311243 2 0 ack 40 ------- 0 2.0 7.0 24 61
r 1.312597 1 0 tcp 1040 ------- 0 7.0 2.0 28 47
+ 1.312597 0 2 tcp 1040 ------- 0 7.0 2.0 28 47
- 1.312597 0 2 tcp 1040 ------- 0 7.0 2.0 28 47
r 1.314635 2 0 ack 40 ------- 0 2.0 7.0 21 58
+ 1.314635 0 1 ack 40 ------- 0 2.0 7.0 21 58
- 1.314635 0 1 ack 40 ------- 0 2.0 7.0 21 58
r 1.316021 0 1 ack 40 ------- 0 2.0 7.0 16 51
+ 1.316021 1 7 ack 40 ------- 0 2.0 7.0 16 51
- 1.316021 1 7 ack 40 ------- 0 2.0 7.0 16 51
r 1.316789 0 2 tcp 1040 ------- 0 7.0 2.0 25 44
+ 1.316789 2 0 ack 40 ------- 0 2.0 7.0 25 62
- 1.316789 2 0 ack 40 ------- 0 2.0 7.0 25 62
r 1.318144 1 0 tcp 1040 ------- 0 7.0 2.0 29 48
+ 1.318144 0 2 tcp 1040 ------- 0 7.0 2.0 29 48
- 1.318144 0 2 tcp 1040 ------- 0 7.0 2.0 29 48
r 1.320181 2 0 ack 40 ------- 0 2.0 7.0 22 59
+ 1.320181 0 1 ack 40 ------- 0 2.0 7.0 22 59
- 1.320181 0 1 ack 40 ------- 0 2.0 7.0 22 59
r 1.321568 0 1 ack 40 ------- 1 3.0 8.0 1 52
+ 1.321568 1 8 ack 40 ------- 1 3.0 8.0 1 52
- 1.321568 1 8 ack 40 ------- 1 3.0 8.0 1 52
r 1.322336 0 2 tcp 1040 ------- 0 7.0 2.0 26 45
+ 1.322336 2 0 ack 40 ------- 0 2.0 7.0 26 63
- 1.322336 2 0 ack 40 ------- 0 2.0 7.0 26 63
r 1.323691 1 0 tcp 1040 ------- 0 7.0 2.0 30 49
+ 1.323691 0 2 tcp 1040 ------- 0 7.0 2.0 30 49
- 1.323691 0 2 tcp 1040 ------- 0 7.0 2.0 30 49
r 1.325728 2 0 ack 40 ------- 0 2.0 7.0 23 60
+ 1.325728 0 1 ack 40 ------- 0 2.0 7.0 23 60
- 1.325728 0 1 ack 40 ------- 0 2.0 7.0 23 60
r 1.327115 0 1 ack 40 ------- 0 2.0 7.0 17 53
+ 1.327115 1 7 ack 40 ------- 0 2.0 7.0 17 53
- 1.327115 1 7 ack 40 ------- 0 2.0 7.0 17 53
r 1.327883 0 2 tcp 1040 ------- 0 7.0 2.0 27 46
+ 1.327883 2 0 ack 40 ------- 0 2.0 7.0 27 64
- 1.327883 2 0 ack 40 ------- 0 2.0 7.0 27 64
r 1.330507 1 7 ack 40 ------- 0 2.0 7.0 15 50
+ 1.330507 7 1 tcp 1040 ------- 0 7.0 2.0 31 65
- 1.330507 7 1 tcp 1040 ------- 0 7.0 2.0 31 65
+ 1.330507 7 1 tcp 1040 ------- 0 7.0 2.0 32 66
r 1.331275 2 0 ack 40 ------- 0 2.0 7.0 24 61
+ 1.331275 0 1 ack 40 ------- 0 2.0 7.0 24 61
- 1.331275 0 1 ack 40 ------- 0 2.0 7.0 24 61
- 1.331339 7 1 tcp 1040 ------- 0 7.0 2.0 32 66
r 1.332661 0 1 ack 40 ------- 1 3.0 8.0 2 54
+ 1.332661 1 8 ack 40 ------- 1 3.0 8.0 2 54
- 1.332661 1 8 ack 40 ------- 1 3.0 8.0 2 54
r 1.333429 0 2 tcp 1040 ------- 0 7.0 2.0 28 47
+ 1.333429 2 0 ack 40 ------- 0 2.0 7.0 28 67
- 1.333429 2 0 ack 40 ------- 0 2.0 7.0 28 67
r 1.336053 1 7 ack 40 ------- 0 2.0 7.0 16 51
+ 1.336053 7 1 tcp 1040 ------- 0 7.0 2.0 33 68
- 1.336053 7 1 tcp 1040 ------- 0 7.0 2.0 33 68
+ 1.336053 7 1 tcp 1040 ------- 0 7.0 2.0 34 69
r 1.336821 2 0 ack 40 ------- 0 2.0 7.0 25 62
+ 1.336821 0 1 ack 40 ------- 0 2.0 7.0 25 62
- 1.336821 0 1 ack 40 ------- 0 2.0 7.0 25 62
- 1.336885 7 1 tcp 1040 ------- 0 7.0 2.0 34 69
r 1.338208 0 1 ack 40 ------- 0 2.0 7.0 18 55
+ 1.338208 1 7 ack 40 ------- 0 2.0 7.0 18 55
- 1.338208 1 7 ack 40 ------- 0 2.0 7.0 18 55
r 1.338976 0 2 tcp 1040 ------- 0 7.0 2.0 29 48
+ 1.338976 2 0 ack 40 ------- 0 2.0 7.0 29 70
- 1.338976 2 0 ack 40 ------- 0 2.0 7.0 29 70
r 1.3416 1 8 ack 40 ------- 1 3.0 8.0 1 52
+ 1.3416 8 1 tcp 1040 ------- 1 8.0 3.0 3 71
- 1.3416 8 1 tcp 1040 ------- 1 8.0 3.0 3 71
+ 1.3416 8 1 tcp 1040 ------- 1 8.0 3.0 4 72
r 1.342368 2 0 ack 40 ------- 0 2.0 7.0 26 63
+ 1.342368 0 1 ack 40 ------- 0 2.0 7.0 26 63
- 1.342368 0 1 ack 40 ------- 0 2.0 7.0 26 63
- 1.342432 8 1 tcp 1040 ------- 1 8.0 3.0 4 72
r 1.343755 0 1 ack 40 ------- 0 2.0 7.0 19 56
+ 1.343755 1 7 ack 40 ------- 0 2.0 7.0 19 56
- 1.343755 1 7 ack 40 ------- 0 2.0 7.0 19 56
r 1.344523 0 2 tcp 1040 ------- 0 7.0 2.0 30 49
+ 1.344523 2 0 ack 40 ------- 0 2.0 7.0 30 73
- 1.344523 2 0 ack 40 ------- 0 2.0 7.0 30 73
r 1.347147 1 7 ack 40 ------- 0 2.0 7.0 17 53
+ 1.347147 7 1 tcp 1040 ------- 0 7.0 2.0 35 74
- 1.347147 7 1 tcp 1040 ------- 0 7.0 2.0 35 74
+ 1.347147 7 1 tcp 1040 ------- 0 7.0 2.0 36 75
r 1.347915 2 0 ack 40 ------- 0 2.0 7.0 27 64
+ 1.347915 0 1 ack 40 ------- 0 2.0 7.0 27 64
- 1.347915 0 1 ack 40 ------- 0 2.0 7.0 27 64
- 1.347979 7 1 tcp 1040 ------- 0 7.0 2.0 36 75
r 1.349301 0 1 ack 40 ------- 0 2.0 7.0 20 57
+ 1.349301 1 7 ack 40 ------- 0 2.0 7.0 20 57
- 1.349301 1 7 ack 40 ------- 0 2.0 7.0 20 57
r 1.351339 7 1 tcp 1040 ------- 0 7.0 2.0 31 65
+ 1.351339 1 0 tcp 1040 ------- 0 7.0 2.0 31 65
- 1.351339 1 0 tcp 1040 ------- 0 7.0 2.0 31 65
r 1.352171 7 1 tcp 1040 ------- 0 7.0 2.0 32 66
+ 1.352171 1 0 tcp 1040 ------- 0 7.0 2.0 32 66
r 1.352693 1 8 ack 40 ------- 1 3.0 8.0 2 54
+ 1.352693 8 1 tcp 1040 ------- 1 8.0 3.0 5 76
- 1.352693 8 1 tcp 1040 ------- 1 8.0 3.0 5 76
+ 1.352693 8 1 tcp 1040 ------- 1 8.0 3.0 6 77
r 1.353461 2 0 ack 40 ------- 0 2.0 7.0 28 67
+ 1.353461 0 1 ack 40 ------- 0 2.0 7.0 28 67
- 1.353461 0 1 ack 40 ------- 0 2.0 7.0 28 67
- 1.353525 8 1 tcp 1040 ------- 1 8.0 3.0 6 77
r 1.354848 0 1 ack 40 ------- 0 2.0 7.0 21 58
+ 1.354848 1 7 ack 40 ------- 0 2.0 7.0 21 58
- 1.354848 1 7 ack 40 ------- 0 2.0 7.0 21 58
r 1.356885 7 1 tcp 1040 ------- 0 7.0 2.0 33 68
+ 1.356885 1 0 tcp 1040 ------- 0 7.0 2.0 33 68
- 1.356885 1 0 tcp 1040 ------- 0 7.0 2.0 32 66
r 1.357717 7 1 tcp 1040 ------- 0 7.0 2.0 34 69
+ 1.357717 1 0 tcp 1040 ------- 0 7.0 2.0 34 69
r 1.35824 1 7 ack 40 ------- 0 2.0 7.0 18 55
+ 1.35824 7 1 tcp 1040 ------- 0 7.0 2.0 37 78
- 1.35824 7 1 tcp 1040 ------- 0 7.0 2.0 37 78
+ 1.35824 7 1 tcp 1040 ------- 0 7.0 2.0 38 79
r 1.359008 2 0 ack 40 ------- 0 2.0 7.0 29 70
+ 1.359008 0 1 ack 40 ------- 0 2.0 7.0 29 70
- 1.359008 0 1 ack 40 ------- 0 2.0 7.0 29 70
- 1.359072 7 1 tcp 1040 ------- 0 7.0 2.0 38 79
r 1.360395 0 1 ack 40 ------- 0 2.0 7.0 22 59
+ 1.360395 1 7 ack 40 ------- 0 2.0 7.0 22 59
- 1.360395 1 7 ack 40 ------- 0 2.0 7.0 22 59
r 1.362432 8 1 tcp 1040 ------- 1 8.0 3.0 3 71
+ 1.362432 1 0 tcp 1040 ------- 1 8.0 3.0 3 71
- 1.362432 1 0 tcp 1040 ------- 0 7.0 2.0 33 68
r 1.363264 8 1 tcp 1040 ------- 1 8.0 3.0 4 72
+ 1.363264 1 0 tcp 1040 ------- 1 8.0 3.0 4 72
r 1.363787 1 7 ack 40 ------- 0 2.0 7.0 19 56
+ 1.363787 7 1 tcp 1040 ------- 0 7.0 2.0 39 80
- 1.363787 7 1 tcp 1040 ------- 0 7.0 2.0 39 80
r 1.364555 2 0 ack 40 ------- 0 2.0 7.0 30 73
+ 1.364555 0 1 ack 40 ------- 0 2.0 7.0 30 73
- 1.364555 0 1 ack 40 ------- 0 2.0 7.0 30 73
r 1.365941 0 1 ack 40 ------- 0 2.0 7.0 23 60
+ 1.365941 1 7 ack 40 ------- 0 2.0 7.0 23 60
- 1.365941 1 7 ack 40 ------- 0 2.0 7.0 23 60
r 1.367979 7 1 tcp 1040 ------- 0 7.0 2.0 35 74
+ 1.367979 1 0 tcp 1040 ------- 0 7.0 2.0 35 74
- 1.367979 1 0 tcp 1040 ------- 0 7.0 2.0 34 69
r 1.368811 7 1 tcp 1040 ------- 0 7.0 2.0 36 75
+ 1.368811 1 0 tcp 1040 ------- 0 7.0 2.0 36 75
r 1.369333 1 7 ack 40 ------- 0 2.0 7.0 20 57
+ 1.369333 7 1 tcp 1040 ------- 0 7.0 2.0 40 81
- 1.369333 7 1 tcp 1040 ------- 0 7.0 2.0 40 81
r 1.371488 0 1 ack 40 ------- 0 2.0 7.0 24 61
+ 1.371488 1 7 ack 40 ------- 0 2.0 7.0 24 61
- 1.371488 1 7 ack 40 ------- 0 2.0 7.0 24 61
r 1.373525 8 1 tcp 1040 ------- 1 8.0 3.0 5 76
+ 1.373525 1 0 tcp 1040 ------- 1 8.0 3.0 5 76
- 1.373525 1 0 tcp 1040 ------- 1 8.0 3.0 3 71
r 1.374357 8 1 tcp 1040 ------- 1 8.0 3.0 6 77
+ 1.374357 1 0 tcp 1040 ------- 1 8.0 3.0 6 77
r 1.37488 1 7 ack 40 ------- 0 2.0 7.0 21 58
+ 1.37488 7 1 tcp 1040 ------- 0 7.0 2.0 41 82
- 1.37488 7 1 tcp 1040 ------- 0 7.0 2.0 41 82
r 1.377035 0 1 ack 40 ------- 0 2.0 7.0 25 62
+ 1.377035 1 7 ack 40 ------- 0 2.0 7.0 25 62
- 1.377035 1 7 ack 40 ------- 0 2.0 7.0 25 62
r 1.379072 7 1 tcp 1040 ------- 0 7.0 2.0 37 78
+ 1.379072 1 0 tcp 1040 ------- 0 7.0 2.0 37 78