V -t * -v 1.0a5 -a 0
A -t * -n 1 -p 0 -o 0x7fffffff -c 30 -a 1
A -t * -h 1 -m 1073741823 -s 0
c -t * -i 4 -n violet
c -t * -i 1 -n red
c -t * -i 2 -n yellow
c -t * -i 3 -n green
n -t * -a 0 -s 0 -S UP -v circle -c yellow -i yellow
n -t * -a 1 -s 1 -S UP -v circle -c yellow -i yellow
n -t * -a 2 -s 2 -S UP -v circle -c red -i red
n -t * -a 3 -s 3 -S UP -v circle -c red -i red
n -t * -a 4 -s 4 -S UP -v circle -c red -i red
n -t * -a 5 -s 5 -S UP -v circle -c red -i red
n -t * -a 6 -s 6 -S UP -v circle -c red -i red
n -t * -a 7 -s 7 -S UP -v circle -c blue -i blue
n -t * -a 8 -s 8 -S UP -v circle -c blue -i blue
n -t * -a 9 -s 9 -S UP -v circle -c blue -i blue
n -t * -a 10 -s 10 -S UP -v circle -c blue -i blue
n -t * -a 11 -s 11 -S UP -v circle -c blue -i blue
l -t * -s 0 -d 1 -S UP -r 1500000 -D 0.040000000000000001 -c black -o left
l -t * -s 1 -d 7 -S UP -r 10000000 -D 0.02 -c black -o up
l -t * -s 1 -d 8 -S UP -r 10000000 -D 0.02 -c black -o left-up
l -t * -s 1 -d 9 -S UP -r 10000000 -D 0.02 -c black -o left-down
l -t * -s 1 -d 10 -S UP -r 10000000 -D 0.02 -c black -o left
l -t * -s 1 -d 11 -S UP -r 10000000 -D 0.02 -c black -o down
l -t * -s 0 -d 2 -S UP -r 10000000 -D 0.02 -c black -o up
l -t * -s 0 -d 3 -S UP -r 10000000 -D 0.02 -c black -o right-up
l -t * -s 0 -d 4 -S UP -r 10000000 -D 0.02 -c black -o right-down
l -t * -s 0 -d 5 -S UP -r 10000000 -D 0.02 -c black -o right
l -t * -s 0 -d 6 -S UP -r 10000000 -D 0.02 -c black -o down
+ -t 0.5 -s 7 -d 1 -p tcp -e 40 -c 0 -i 0 -a 0 -x {7.0 2.0 0 ------- null}
- -t 0.5 -s 7 -d 1 -p tcp -e 40 -c 0 -i 0 -a 0 -x {7.0 2.0 0 ------- null}
h -t 0.5 -s 7 -d 1 -p tcp -e 40 -c 0 -i 0 -a 0 -x {7.0 2.0 -1 ------- null}
r -t 0.520032 -s 7 -d 1 -p tcp -e 40 -c 0 -i 0 -a 0 -x {7.0 2.0 0 ------- null}
+ -t 0.520032 -s 1 -d 0 -p tcp -e 40 -c 0 -i 0 -a 0 -x {7.0 2.0 0 ------- null}
- -t 0.520032 -s 1 -d 0 -p tcp -e 40 -c 0 -i 0 -a 0 -x {7.0 2.0 0 ------- null}
h -t 0.520032 -s 1 -d 0 -p tcp -e 40 -c 0 -i 0 -a 0 -x {7.0 2.0 -1 ------- null}
r -t 0.560245333333333 -s 1 -d 0 -p tcp -e 40 -c 0 -i 0 -a 0 -x {7.0 2.0 0 ------- null}
+ -t 0.560245333333333 -s 0 -d 2 -p tcp -e 40 -c 0 -i 0 -a 0 -x {7.0 2.0 0 ------- null}
- -t 0.560245333333333 -s 0 -d 2 -p tcp -e 40 -c 0 -i 0 -a 0 -x {7.0 2.0 0 ------- null}
h -t 0.560245333333333 -s 0 -d 2 -p tcp -e 40 -c 0 -i 0 -a 0 -x {7.0 2.0 -1 ------- null}
r -t 0.580277333333333 -s 0 -d 2 -p tcp -e 40 -c 0 -i 0 -a 0 -x {7.0 2.0 0 ------- null}
+ -t 0.580277333333333 -s 2 -d 0 -p ack -e 40 -c 0 -i 1 -a 0 -x {2.0 7.0 0 ------- null}
- -t 0.580277333333333 -s 2 -d 0 -p ack -e 40 -c 0 -i 1 -a 0 -x {2.0 7.0 0 ------- null}
h -t 0.580277333333333 -s 2 -d 0 -p ack -e 40 -c 0 -i 1 -a 0 -x {2.0 7.0 -1 ------- null}
r -t 0.600309333333333 -s 2 -d 0 -p ack -e 40 -c 0 -i 1 -a 0 -x {2.0 7.0 0 ------- null}
+ -t 0.600309333333333 -s 0 -d 1 -p ack -e 40 -c 0 -i 1 -a 0 -x {2.0 7.0 0 ------- null}
- -t 0.600309333333333 -s 0 -d 1 -p ack -e 40 -c 0 -i 1 -a 0 -x {2.0 7.0 0 ------- null}
h -t 0.600309333333333 -s 0 -d 1 -p ack -e 40 -c 0 -i 1 -a 0 -x {2.0 7.0 -1 ------- null}
r -t 0.640522666666667 -s 0 -d 1 -p ack -e 40 -c 0 -i 1 -a 0 -x {2.0 7.0 0 ------- null}
+ -t 0.640522666666667 -s 1 -d 7 -p ack -e 40 -c 0 -i 1 -a 0 -x {2.0 7.0 0 ------- null}
- -t 0.640522666666667 -s 1 -d 7 -p ack -e 40 -c 0 -i 1 -a 0 -x {2.0 7.0 0 ------- null}
h -t 0.640522666666667 -s 1 -d 7 -p ack -e 40 -c 0 -i 1 -a 0 -x {2.0 7.0 -1 ------- null}
r -t 0.660554666666667 -s 1 -d 7 -p ack -e 40 -c 0 -i 1 -a 0 -x {2.0 7.0 0 ------- null}
+ -t 0.660554666666667 -s 7 -d 1 -p tcp -e 1040 -c 0 -i 2 -a 0 -x {7.0 2.0 1 ------- null}
- -t 0.660554666666667 -s 7 -d 1 -p tcp -e 1040 -c 0 -i 2 -a 0 -x {7.0 2.0 1 ------- null}
h -t 0.660554666666667 -s 7 -d 1 -p tcp -e 1040 -c 0 -i 2 -a 0 -x {7.0 2.0 -1 ------- null}
+ -t 0.660554666666667 -s 7 -d 1 -p tcp -e 1040 -c 0 -i 3 -a 0 -x {7.0 2.0 2 ------- null}
- -t 0.661386666666667 -s 7 -d 1 -p tcp -e 1040 -c 0 -i 3 -a 0 -x {7.0 2.0 2 ------- null}
h -t 0.661386666666667 -s 7 -d 1 -p tcp -e 1040 -c 0 -i 3 -a 0 -x {7.0 2.0 -1 ------- null}
r -t 0.681386666666667 -s 7 -d 1 -p tcp -e 1040 -c 0 -i 2 -a 0 -x {7.0 2.0 1 ------- null}
+ -t 0.681386666666667 -s 1 -d 0 -p tcp -e 1040 -c 0 -i 2 -a 0 -x {7.0 2.0 1 ------- null}
- -t 0.681386666666667 -s 1 -d 0 -p tcp -e 1040 -c 0 -i 2 -a 0 -x {7.0 2.0 1 ------- null}
h -t 0.681386666666667 -s 1 -d 0 -p tcp -e 1040 -c 0 -i 2 -a 0 -x {7.0 2.0 -1 ------- null}
r -t 0.682218666666667 -s 7 -d 1 -p tcp -e 1040 -c 0 -i 3 -a 0 -x {7.0 2.0 2 ------- null}
+ -t 0.682218666666667 -s 1 -d 0 -p tcp -e 1040 -c 0 -i 3 -a 0 -x {7.0 2.0 2 ------- null}
- -t 0.686933333333334 -s 1 -d 0 -p tcp -e 1040 -c 0 -i 3 -a 0 -x {7.0 2.0 2 ------- null}
h -t 0.686933333333334 -s 1 -d 0 -p tcp -e 1040 -c 0 -i 3 -a 0 -x {7.0 2.0 -1 ------- null}
r -t 0.726933333333333 -s 1 -d 0 -p tcp -e 1040 -c 0 -i 2 -a 0 -x {7.0 2.0 1 ------- null}
+ -t 0.726933333333333 -s 0 -d 2 -p tcp -e 1040 -c 0 -i 2 -a 0 -x {7.0 2.0 1 ------- null}
- -t 0.726933333333333 -s 0 -d 2 -p tcp -e 1040 -c 0 -i 2 -a 0 -x {7.0 2.0 1 ------- null}
h -t 0.726933333333333 -s 0 -d 2 -p tcp -e 1040 -c 0 -i 2 -a 0 -x {7.0 2.0 -1 ------- null}
r -t 0.73248 -s 1 -d 0 -p tcp -e 1040 -c 0 -i 3 -a 0 -x {7.0 2.0 2 ------- null}
+ -t 0.73248 -s 0 -d 2 -p tcp -e 1040 -c 0 -i 3 -a 0 -x {7.0 2.0 2 ------- null}
- -t 0.73248 -s 0 -d 2 -p tcp -e 1040 -c 0 -i 3 -a 0 -x {7.0 2.0 2 ------- null}
h -t 0.73248 -s 0 -d 2 -p tcp -e 1040 -c 0 -i 3 -a 0 -x {7.0 2.0 -1 ------- null}
r -t 0.747765333333333 -s 0 -d 2 -p tcp -e 1040 -c 0 -i 2 -a 0 -x {7.0 2.0 1 ------- null}
+ -t 0.747765333333333 -s 2 -d 0 -p ack -e 40 -c 0 -i 4 -a 0 -x {2.0 7.0 1 ------- null}
- -t 0.747765333333333 -s 2 -d 0 -p ack -e 40 -c 0 -i 4 -a 0 -x {2.0 7.0 1 ------- null}
h -t 0.747765333333333 -s 2 -d 0 -p ack -e 40 -c 0 -i 4 -a 0 -x {2.0 7.0 -1 ------- null}
r -t 0.753312 -s 0 -d 2 -p tcp -e 1040 -c 0 -i 3 -a 0 -x {7.0 2.0 2 ------- null}
+ -t 0.753312 -s 2 -d 0 -p ack -e 40 -c 0 -i 5 -a 0 -x {2.0 7.0 2 ------- null}
- -t 0.753312 -s 2 -d 0 -p ack -e 40 -c 0 -i 5 -a 0 -x {2.0 7.0 2 ------- null}
h -t 0.753312 -s 2 -d 0 -p ack -e 40 -c 0 -i 5 -a 0 -x {2.0 7.0 -1 ------- null}
r -t 0.767797333333333 -s 2 -d 0 -p ack -e 40 -c 0 -i 4 -a 0 -x {2.0 7.0 1 ------- null}
+ -t 0.767797333333333 -s 0 -d 1 -p ack -e 40 -c 0 -i 4 -a 0 -x {2.0 7.0 1 ------- null}
- -t 0.767797333333333 -s 0 -d 1 -p ack -e 40 -c 0 -i 4 -a 0 -x {2.0 7.0 1 ------- null}
h -t 0.767797333333333 -s 0 -d 1 -p ack -e 40 -c 0 -i 4 -a 0 -x {2.0 7.0 -1 ------- null}
r -t 0.773344 -s 2 -d 0 -p ack -e 40 -c 0 -i 5 -a 0 -x {2.0 7.0 2 ------- null}
+ -t 0.773344 -s 0 -d 1 -p ack -e 40 -c 0 -i 5 -a 0 -x {2.0 7.0 2 ------- null}
- -t 0.773344 -s 0 -d 1 -p ack -e 40 -c 0 -i 5 -a 0 -x {2.0 7.0 2 ------- null}
h -t 0.773344 -s 0 -d 1 -p ack -e 40 -c 0 -i 5 -a 0 -x {2.0 7.0 -1 ------- null}
r -t 0.808010666666667 -s 0 -d 1 -p ack -e 40 -c 0 -i 4 -a 0 -x {2.0 7.0 1 ------- null}
+ -t 0.808010666666667 -s 1 -d 7 -p ack -e 40 -c 0 -i 4 -a 0 -x {2.0 7.0 1 ------- null}
- -t 0.808010666666667 -s 1 -d 7 -p ack -e 40 -c 0 -i 4 -a 0 -x {2.0 7.0 1 ------- null}
h -t 0.808010666666667 -s 1 -d 7 -p ack -e 40 -c 0 -i 4 -a 0 -x {2.0 7.0 -1 ------- null}
r -t 0.813557333333333 -s 0 -d 1 -p ack -e 40 -c 0 -i 5 -a 0 -x {2.0 7.0 2 ------- null}
+ -t 0.813557333333333 -s 1 -d 7 -p ack -e 40 -c 0 -i 5 -a 0 -x {2.0 7.0 2 ------- null}
- -t 0.813557333333333 -s 1 -d 7 -p ack -e 40 -c 0 -i 5 -a 0 -x {2.0 7.0 2 ------- null}
h -t 0.813557333333333 -s 1 -d 7 -p ack -e 40 -c 0 -i 5 -a 0 -x {2.0 7.0 -1 ------- null}
r -t 0.828042666666667 -s 1 -d 7 -p ack -e 40 -c 0 -i 4 -a 0 -x {2.0 7.0 1 ------- null}
+ -t 0.828042666666667 -s 7 -d 1 -p tcp -e 1040 -c 0 -i 6 -a 0 -x {7.0 2.0 3 ------- null}
- -t 0.828042666666667 -s 7 -d 1 -p tcp -e 1040 -c 0 -i 6 -a 0 -x {7.0 2.0 3 ------- null}
h -t 0.828042666666667 -s 7 -d 1 -p tcp -e 1040 -c 0 -i 6 -a 0 -x {7.0 2.0 -1 ------- null}
+ -t 0.828042666666667 -s 7 -d 1 -p tcp -e 1040 -c 0 -i 7 -a 0 -x {7.0 2.0 4 ------- null}
- -t 0.828874666666667 -s 7 -d 1 -p tcp -e 1040 -c 0 -i 7 -a 0 -x {7.0 2.0 4 ------- null}
h -t 0.828874666666667 -s 7 -d 1 -p tcp -e 1040 -c 0 -i 7 -a 0 -x {7.0 2.0 -1 ------- null}
r -t 0.833589333333334 -s 1 -d 7 -p ack -e 40 -c 0 -i 5 -a 0 -x {2.0 7.0 2 ------- null}
+ -t 0.833589333333334 -s 7 -d 1 -p tcp -e 1040 -c 0 -i 8 -a 0 -x {7.0 2.0 5 ------- null}
- -t 0.833589333333334 -s 7 -d 1 -p tcp -e 1040 -c 0 -i 8 -a 0 -x {7.0 2.0 5 ------- null}
h -t 0.833589333333334 -s 7 -d 1 -p tcp -e 1040 -c 0 -i 8 -a 0 -x {7.0 2.0 -1 ------- null}
+ -t 0.833589333333334 -s 7 -d 1 -p tcp -e 1040 -c 0 -i 9 -a 0 -x {7.0 2.0 6 ------- null}
- -t 0.834421333333334 -s 7 -d 1 -p tcp -e 1040 -c 0 -i 9 -a 0 -x {7.0 2.0 6 ------- null}
h -t 0.834421333333334 -s 7 -d 1 -p tcp -e 1040 -c 0 -i 9 -a 0 -x {7.0 2.0 -1 ------- null}
r -t 0.848874666666667 -s 7 -d 1 -p tcp -e 1040 -c 0 -i 6 -a 0 -x {7.0 2.0 3 ------- null}
+ -t 0.848874666666667 -s 1 -d 0 -p tcp -e 1040 -c 0 -i 6 -a 0 -x {7.0 2.0 3 ------- null}
- -t 0.848874666666667 -s 1 -d 0 -p tcp -e 1040 -c 0 -i 6 -a 0 -x {7.0 2.0 3 ------- null}
h -t 0.848874666666667 -s 1 -d 0 -p tcp -e 1040 -c 0 -i 6 -a 0 -x {7.0 2.0 -1 ------- null}
r -t 0.849706666666667 -s 7 -d 1 -p tcp -e 1040 -c 0 -i 7 -a 0 -x {7.0 2.0 4 ------- null}
+ -t 0.849706666666667 -s 1 -d 0 -p tcp -e 1040 -c 0 -i 7 -a 0 -x {7.0 2.0 4 ------- null}
r -t 0.854421333333333 -s 7 -d 1 -p tcp -e 1040 -c 0 -i 8 -a 0 -x {7.0 2.0 5 ------- null}
+ -t 0.854421333333333 -s 1 -d 0 -p tcp -e 1040 -c 0 -i 8 -a 0 -x {7.0 2.0 5 ------- null}
- -t 0.854421333333333 -s 1 -d 0 -p tcp -e 1040 -c 0 -i 7 -a 0 -x {7.0 2.0 4 ------- null}
h -t 0.854421333333333 -s 1 -d 0 -p tcp -e 1040 -c 0 -i 7 -a 0 -x {7.0 2.0 -1 ------- null}
r -t 0.855253333333334 -s 7 -d 1 -p tcp -e 1040 -c 0 -i 9 -a 0 -x {7.0 2.0 6 ------- null}
+ -t 0.855253333333334 -s 1 -d 0 -p tcp -e 1040 -c 0 -i 9 -a 0 -x {7.0 2.0 6 ------- null}
- -t 0.859968 -s 1 -d 0 -p tcp -e 1040 -c 0 -i 8 -a 0 -x {7.0 2.0 5 ------- null}
h -t 0.859968 -s 1 -d 0 -p tcp -e 1040 -c 0 -i 8 -a 0 -x {7.0 2.0 -1 ------- null}
- -t 0.865514666666667 -s 1 -d 0 -p tcp -e 1040 -c 0 -i 9 -a 0 -x {7.0 2.0 6 ------- null}
h -t 0.865514666666667 -s 1 -d 0 -p tcp -e 1040 -c 0 -i 9 -a 0 -x {7.0 2.0 -1 ------- null}
r -t 0.894421333333333 -s 1 -d 0 -p tcp -e 1040 -c 0 -i 6 -a 0 -x {7.0 2.0 3 ------- null}
+ -t 0.894421333333333 -s 0 -d 2 -p tcp -e 1040 -c 0 -i 6 -a 0 -x {7.0 2.0 3 ------- null}
- -t 0.894421333333333 -s 0 -d 2 -p tcp -e 1040 -c 0 -i 6 -a 0 -x {7.0 2.0 3 ------- null}
h -t 0.894421333333333 -s 0 -d 2 -p tcp -e 1040 -c 0 -i 6 -a 0 -x {7.0 2.0 -1 ------- null}
r -t 0.899968 -s 1 -d 0 -p tcp -e 1040 -c 0 -i 7 -a 0 -x {7.0 2.0 4 ------- null}
+ -t 0.899968 -s 0 -d 2 -p tcp -e 1040 -c 0 -i 7 -a 0 -x {7.0 2.0 4 ------- null}
- -t 0.899968 -s 0 -d 2 -p tcp -e 1040 -c 0 -i 7 -a 0 -x {7.0 2.0 4 ------- null}
h -t 0.899968 -s 0 -d 2 -p tcp -e 1040 -c 0 -i 7 -a 0 -x {7.0 2.0 -1 ------- null}
r -t 0.905514666666667 -s 1 -d 0 -p tcp -e 1040 -c 0 -i 8 -a 0 -x {7.0 2.0 5 ------- null}
+ -t 0.905514666666667 -s 0 -d 2 -p tcp -e 1040 -c 0 -i 8 -a 0 -x {7.0 2.0 5 ------- null}
- -t 0.905514666666667 -s 0 -d 2 -p tcp -e 1040 -c 0 -i 8 -a 0 -x {7.0 2.0 5 ------- null}
h -t 0.905514666666667 -s 0 -d 2 -p tcp -e 1040 -c 0 -i 8 -a 0 -x {7.0 2.0 -1 ------- null}
r -t 0.911061333333334 -s 1 -d 0 -p tcp -e 1040 -c 0 -i 9 -a 0 -x {7.0 2.0 6 ------- null}
+ -t 0.911061333333334 -s 0 -d 2 -p tcp -e 1040 -c 0 -i 9 -a 0 -x {7.0 2.0 6 ------- null}
- -t 0.911061333333334 -s 0 -d 2 -p tcp -e 1040 -c 0 -i 9 -a 0 -x {7.0 2.0 6 ------- null}
h -t 0.911061333333334 -s 0 -d 2 -p tcp -e 1040 -c 0 -i 9 -a 0 -x {7.0 2.0 -1 ------- null}
r -t 0.915253333333333 -s 0 -d 2 -p tcp -e 1040 -c 0 -i 6 -a 0 -x {7.0 2.0 3 ------- null}
+ -t 0.915253333333333 -s 2 -d 0 -p ack -e 40 -c 0 -i 10 -a 0 -x {2.0 7.0 3 ------- null}
- -t 0.915253333333333 -s 2 -d 0 -p ack -e 40 -c 0 -i 10 -a 0 -x {2.0 7.0 3 ------- null}
h -t 0.915253333333333 -s 2 -d 0 -p ack -e 40 -c 0 -i 10 -a 0 -x {2.0 7.0 -1 ------- null}
r -t 0.9208 -s 0 -d 2 -p tcp -e 1040 -c 0 -i 7 -a 0 -x {7.0 2.0 4 ------- null}
+ -t 0.9208 -s 2 -d 0 -p ack -e 40 -c 0 -i 11 -a 0 -x {2.0 7.0 4 ------- null}
- -t 0.9208 -s 2 -d 0 -p ack -e 40 -c 0 -i 11 -a 0 -x {2.0 7.0 4 ------- null}
h -t 0.9208 -s 2 -d 0 -p ack -e 40 -c 0 -i 11 -a 0 -x {2.0 7.0 -1 ------- null}
r -t 0.926346666666667 -s 0 -d 2 -p tcp -e 1040 -c 0 -i 8 -a 0 -x {7.0 2.0 5 ------- null}
+ -t 0.926346666666667 -s 2 -d 0 -p ack -e 40 -c 0 -i 12 -a 0 -x {2.0 7.0 5 ------- null}
- -t 0.926346666666667 -s 2 -d 0 -p ack -e 40 -c 0 -i 12 -a 0 -x {2.0 7.0 5 ------- null}
h -t 0.926346666666667 -s 2 -d 0 -p ack -e 40 -c 0 -i 12 -a 0 -x {2.0 7.0 -1 ------- null}
r -t 0.931893333333333 -s 0 -d 2 -p tcp -e 1040 -c 0 -i 9 -a 0 -x {7.0 2.0 6 ------- null}
+ -t 0.931893333333333 -s 2 -d 0 -p ack -e 40 -c 0 -i 13 -a 0 -x {2.0 7.0 6 ------- null}
- -t 0.931893333333333 -s 2 -d 0 -p ack -e 40 -c 0 -i 13 -a 0 -x {2.0 7.0 6 ------- null}
h -t 0.931893333333333 -s 2 -d 0 -p ack -e 40 -c 0 -i 13 -a 0 -x {2.0 7.0 -1 ------- null}
r -t 0.935285333333333 -s 2 -d 0 -p ack -e 40 -c 0 -i 10 -a 0 -x {2.0 7.0 3 ------- null}
+ -t 0.935285333333333 -s 0 -d 1 -p ack -e 40 -c 0 -i 10 -a 0 -x {2.0 7.0 3 ------- null}
- -t 0.935285333333333 -s 0 -d 1 -p ack -e 40 -c 0 -i 10 -a 0 -x {2.0 7.0 3 ------- null}
h -t 0.935285333333333 -s 0 -d 1 -p ack -e 40 -c 0 -i 10 -a 0 -x {2.0 7.0 -1 ------- null}
r -t 0.940832 -s 2 -d 0 -p ack -e 40 -c 0 -i 11 -a 0 -x {2.0 7.0 4 ------- null}
+ -t 0.940832 -s 0 -d 1 -p ack -e 40 -c 0 -i 11 -a 0 -x {2.0 7.0 4 ------- null}
- -t 0.940832 -s 0 -d 1 -p ack -e 40 -c 0 -i 11 -a 0 -x {2.0 7.0 4 ------- null}
h -t 0.940832 -s 0 -d 1 -p ack -e 40 -c 0 -i 11 -a 0 -x {2.0 7.0 -1 ------- null}
r -t 0.946378666666667 -s 2 -d 0 -p ack -e 40 -c 0 -i 12 -a 0 -x {2.0 7.0 5 ------- null}
+ -t 0.946378666666667 -s 0 -d 1 -p ack -e 40 -c 0 -i 12 -a 0 -x {2.0 7.0 5 ------- null}
- -t 0.946378666666667 -s 0 -d 1 -p ack -e 40 -c 0 -i 12 -a 0 -x {2.0 7.0 5 ------- null}
h -t 0.946378666666667 -s 0 -d 1 -p ack -e 40 -c 0 -i 12 -a 0 -x {2.0 7.0 -1 ------- null}
r -t 0.951925333333334 -s 2 -d 0 -p ack -e 40 -c 0 -i 13 -a 0 -x {2.0 7.0 6 ------- null}
+ -t 0.951925333333334 -s 0 -d 1 -p ack -e 40 -c 0 -i 13 -a 0 -x {2.0 7.0 6 ------- null}
- -t 0.951925333333334 -s 0 -d 1 -p ack -e 40 -c 0 -i 13 -a 0 -x {2.0 7.0 6 ------- null}
h -t 0.951925333333334 -s 0 -d 1 -p ack -e 40 -c 0 -i 13 -a 0 -x {2.0 7.0 -1 ------- null}
r -t 0.975498666666667 -s 0 -d 1 -p ack -e 40 -c 0 -i 10 -a 0 -x {2.0 7.0 3 ------- null}
+ -t 0.975498666666667 -s 1 -d 7 -p ack -e 40 -c 0 -i 10 -a 0 -x {2.0 7.0 3 ------- null}
- -t 0.975498666666667 -s 1 -d 7 -p ack -e 40 -c 0 -i 10 -a 0 -x {2.0 7.0 3 ------- null}
h -t 0.975498666666667 -s 1 -d 7 -p ack -e 40 -c 0 -i 10 -a 0 -x {2.0 7.0 -1 ------- null}
r -t 0.981045333333333 -s 0 -d 1 -p ack -e 40 -c 0 -i 11 -a 0 -x {2.0 7.0 4 ------- null}
+ -t 0.981045333333333 -s 1 -d 7 -p ack -e 40 -c 0 -i 11 -a 0 -x {2.0 7.0 4 ------- null}
- -t 0.981045333333333 -s 1 -d 7 -p ack -e 40 -c 0 -i 11 -a 0 -x {2.0 7.0 4 ------- null}
h -t 0.981045333333333 -s 1 -d 7 -p ack -e 40 -c 0 -i 11 -a 0 -x {2.0 7.0 -1 ------- null}
r -t 0.986592 -s 0 -d 1 -p ack -e 40 -c 0 -i 12 -a 0 -x {2.0 7.0 5 ------- null}
+ -t 0.986592 -s 1 -d 7 -p ack -e 40 -c 0 -i 12 -a 0 -x {2.0 7.0 5 ------- null}
- -t 0.986592 -s 1 -d 7 -p ack -e 40 -c 0 -i 12 -a 0 -x {2.0 7.0 5 ------- null}
h -t 0.986592 -s 1 -d 7 -p ack -e 40 -c 0 -i 12 -a 0 -x {2.0 7.0 -1 ------- null}
r -t 0.992138666666667 -s 0 -d 1 -p ack -e 40 -c 0 -i 13 -a 0 -x {2.0 7.0 6 ------- null}
+ -t 0.992138666666667 -s 1 -d 7 -p ack -e 40 -c 0 -i 13 -a 0 -x {2.0 7.0 6 ------- null}
- -t 0.992138666666667 -s 1 -d 7 -p ack -e 40 -c 0 -i 13 -a 0 -x {2.0 7.0 6 ------- null}
h -t 0.992138666666667 -s 1 -d 7 -p ack -e 40 -c 0 -i 13 -a 0 -x {2.0 7.0 -1 ------- null}
r -t 0.995530666666667 -s 1 -d 7 -p ack -e 40 -c 0 -i 10 -a 0 -x {2.0 7.0 3 ------- null}
+ -t 0.995530666666667 -s 7 -d 1 -p tcp -e 1040 -c 0 -i 14 -a 0 -x {7.0 2.0 7 ------- null}
- -t 0.995530666666667 -s 7 -d 1 -p tcp -e 1040 -c 0 -i 14 -a 0 -x {7.0 2.0 7 ------- null}
h -t 0.995530666666667 -s 7 -d 1 -p tcp -e 1040 -c 0 -i 14 -a 0 -x {7.0 2.0 -1 ------- null}
+ -t 0.995530666666667 -s 7 -d 1 -p tcp -e 1040 -c 0 -i 15 -a 0 -x {7.0 2.0 8 ------- null}
- -t 0.996362666666667 -s 7 -d 1 -p tcp -e 1040 -c 0 -i 15 -a 0 -x {7.0 2.0 8 ------- null}
h -t 0.996362666666667 -s 7 -d 1 -p tcp -e 1040 -c 0 -i 15 -a 0 -x {7.0 2.0 -1 ------- null}
+ -t 1 -s 8 -d 1 -p tcp -e 40 -c 1 -i 16 -a 1 -x {8.0 3.0 0 ------- null}
- -t 1 -s 8 -d 1 -p tcp -e 40 -c 1 -i 16 -a 1 -x {8.0 3.0 0 ------- null}
h -t 1 -s 8 -d 1 -p tcp -e 40 -c 1 -i 16 -a 1 -x {8.0 3.0 -1 ------- null}
r -t 1.00107733333333 -s 1 -d 7 -p ack -e 40 -c 0 -i 11 -a 0 -x {2.0 7.0 4 ------- null}
+ -t 1.00107733333333 -s 7 -d 1 -p tcp -e 1040 -c 0 -i 17 -a 0 -x {7.0 2.0 9 ------- null}
- -t 1.00107733333333 -s 7 -d 1 -p tcp -e 1040 -c 0 -i 17 -a 0 -x {7.0 2.0 9 ------- null}
h -t 1.00107733333333 -s 7 -d 1 -p tcp -e 1040 -c 0 -i 17 -a 0 -x {7.0 2.0 -1 ------- null}
+ -t 1.00107733333333 -s 7 -d 1 -p tcp -e 1040 -c 0 -i 18 -a 0 -x {7.0 2.0 10 ------- null}
- -t 1.00190933333333 -s 7 -d 1 -p tcp -e 1040 -c 0 -i 18 -a 0 -x {7.0 2.0 10 ------- null}
h -t 1.00190933333333 -s 7 -d 1 -p tcp -e 1040 -c 0 -i 18 -a 0 -x {7.0 2.0 -1 ------- null}
r -t 1.006624 -s 1 -d 7 -p ack -e 40 -c 0 -i 12 -a 0 -x {2.0 7.0 5 ------- null}
+ -t 1.006624 -s 7 -d 1 -p tcp -e 1040 -c 0 -i 19 -a 0 -x {7.0 2.0 11 ------- null}
- -t 1.006624 -s 7 -d 1 -p tcp -e 1040 -c 0 -i 19 -a 0 -x {7.0 2.0 11 ------- null}
h -t 1.006624 -s 7 -d 1 -p tcp -e 1040 -c 0 -i 19 -a 0 -x {7.0 2.0 -1 ------- null}
+ -t 1.006624 -s 7 -d 1 -p tcp -e 1040 -c 0 -i 20 -a 0 -x {7.0 2.0 12 ------- null}
- -t 1.007456 -s 7 -d 1 -p tcp -e 1040 -c 0 -i 20 -a 0 -x {7.0 2.0 12 ------- null}
h -t 1.007456 -s 7 -d 1 -p tcp -e 1040 -c 0 -i 20 -a 0 -x {7.0 2.0 -1 ------- null}
r -t 1.01217066666667 -s 1 -d 7 -p ack -e 40 -c 0 -i 13 -a 0 -x {2.0 7.0 6 ------- null}
+ -t 1.01217066666667 -s 7 -d 1 -p tcp -e 1040 -c 0 -i 21 -a 0 -x {7.0 2.0 13 ------- null}
- -t 1.01217066666667 -s 7 -d 1 -p tcp -e 1040 -c 0 -i 21 -a 0 -x {7.0 2.0 13 ------- null}
h -t 1.01217066666667 -s 7 -d 1 -p tcp -e 1040 -c 0 -i 21 -a 0 -x {7.0 2.0 -1 ------- null}
+ -t 1.01217066666667 -s 7 -d 1 -p tcp -e 1040 -c 0 -i 22 -a 0 -x {7.0 2.0 14 ------- null}
- -t 1.01300266666667 -s 7 -d 1 -p tcp -e 1040 -c 0 -i 22 -a 0 -x {7.0 2.0 14 ------- null}
h -t 1.01300266666667 -s 7 -d 1 -p tcp -e 1040 -c 0 -i 22 -a 0 -x {7.0 2.0 -1 ------- null}
r -t 1.01636266666667 -s 7 -d 1 -p tcp -e 1040 -c 0 -i 14 -a 0 -x {7.0 2.0 7 ------- null}
+ -t 1.01636266666667 -s 1 -d 0 -p tcp -e 1040 -c 0 -i 14 -a 0 -x {7.0 2.0 7 ------- null}
- -t 1.01636266666667 -s 1 -d 0 -p tcp -e 1040 -c 0 -i 14 -a 0 -x {7.0 2.0 7 ------- null}
h -t 1.01636266666667 -s 1 -d 0 -p tcp -e 1040 -c 0 -i 14 -a 0 -x {7.0 2.0 -1 ------- null}
r -t 1.01719466666667 -s 7 -d 1 -p tcp -e 1040 -c 0 -i 15 -a 0 -x {7.0 2.0 8 ------- null}
+ -t 1.01719466666667 -s 1 -d 0 -p tcp -e 1040 -c 0 -i 15 -a 0 -x {7.0 2.0 8 ------- null}
r -t 1.020032 -s 8 -d 1 -p tcp -e 40 -c 1 -i 16 -a 1 -x {8.0 3.0 0 ------- null}
+ -t 1.020032 -s 1 -d 0 -p tcp -e 40 -c 1 -i 16 -a 1 -x {8.0 3.0 0 ------- null}
r -t 1.02190933333333 -s 7 -d 1 -p tcp -e 1040 -c 0 -i 17 -a 0 -x {7.0 2.0 9 ------- null}
+ -t 1.02190933333333 -s 1 -d 0 -p tcp -e 1040 -c 0 -i 17 -a 0 -x {7.0 2.0 9 ------- null}
- -t 1.02190933333333 -s 1 -d 0 -p tcp -e 1040 -c 0 -i 15 -a 0 -x {7.0 2.0 8 ------- null}
h -t 1.02190933333333 -s 1 -d 0 -p tcp -e 1040 -c 0 -i 15 -a 0 -x {7.0 2.0 -1 ------- null}
r -t 1.02274133333333 -s 7 -d 1 -p tcp -e 1040 -c 0 -i 18 -a 0 -x {7.0 2.0 10 ------- null}
+ -t 1.02274133333333 -s 1 -d 0 -p tcp -e 1040 -c 0 -i 18 -a 0 -x {7.0 2.0 10 ------- null}
- -t 1.027456 -s 1 -d 0 -p tcp -e 40 -c 1 -i 16 -a 1 -x {8.0 3.0 0 ------- null}
h -t 1.027456 -s 1 -d 0 -p tcp -e 40 -c 1 -i 16 -a 1 -x {8.0 3.0 -1 ------- null}
r -t 1.027456 -s 7 -d 1 -p tcp -e 1040 -c 0 -i 19 -a 0 -x {7.0 2.0 11 ------- null}
+ -t 1.027456 -s 1 -d 0 -p tcp -e 1040 -c 0 -i 19 -a 0 -x {7.0 2.0 11 ------- null}
- -t 1.02766933333333 -s 1 -d 0 -p tcp -e 1040 -c 0 -i 17 -a 0 -x {7.0 2.0 9 ------- null}
h -t 1.02766933333333 -s 1 -d 0 -p tcp -e 1040 -c 0 -i 17 -a 0 -x {7.0 2.0 -1 ------- null}
r -t 1.028288 -s 7 -d 1 -p tcp -e 1040 -c 0 -i 20 -a 0 -x {7.0 2.0 12 ------- null}
+ -t 1.028288 -s 1 -d 0 -p tcp -e 1040 -c 0 -i 20 -a 0 -x {7.0 2.0 12 ------- null}
r -t 1.03300266666667 -s 7 -d 1 -p tcp -e 1040 -c 0 -i 21 -a 0 -x {7.0 2.0 13 ------- null}
+ -t 1.03300266666667 -s 1 -d 0 -p tcp -e 1040 -c 0 -i 21 -a 0 -x {7.0 2.0 13 ------- null}
- -t 1.033216 -s 1 -d 0 -p tcp -e 1040 -c 0 -i 18 -a 0 -x {7.0 2.0 10 ------- null}
h -t 1.033216 -s 1 -d 0 -p tcp -e 1040 -c 0 -i 18 -a 0 -x {7.0 2.0 -1 ------- null}
r -t 1.03383466666667 -s 7 -d 1 -p tcp -e 1040 -c 0 -i 22 -a 0 -x {7.0 2.0 14 ------- null}
+ -t 1.03383466666667 -s 1 -d 0 -p tcp -e 1040 -c 0 -i 22 -a 0 -x {7.0 2.0 14 ------- null}
- -t 1.03876266666667 -s 1 -d 0 -p tcp -e 1040 -c 0 -i 19 -a 0 -x {7.0 2.0 11 ------- null}
h -t 1.03876266666667 -s 1 -d 0 -p tcp -e 1040 -c 0 -i 19 -a 0 -x {7.0 2.0 -1 ------- null}
- -t 1.04430933333333 -s 1 -d 0 -p tcp -e 1040 -c 0 -i 20 -a 0 -x {7.0 2.0 12 ------- null}
h -t 1.04430933333333 -s 1 -d 0 -p tcp -e 1040 -c 0 -i 20 -a 0 -x {7.0 2.0 -1 ------- null}
- -t 1.049856 -s 1 -d 0 -p tcp -e 1040 -c 0 -i 21 -a 0 -x {7.0 2.0 13 ------- null}
h -t 1.049856 -s 1 -d 0 -p tcp -e 1040 -c 0 -i 21 -a 0 -x {7.0 2.0 -1 ------- null}
- -t 1.05540266666667 -s 1 -d 0 -p tcp -e 1040 -c 0 -i 22 -a 0 -x {7.0 2.0 14 ------- null}
h -t 1.05540266666667 -s 1 -d 0 -p tcp -e 1040 -c 0 -i 22 -a 0 -x {7.0 2.0 -1 ------- null}
r -t 1.06190933333333 -s 1 -d 0 -p tcp -e 1040 -c 0 -i 14 -a 0 -x {7.0 2.0 7 ------- null}
+ -t 1.06190933333333 -s 0 -d 2 -p tcp -e 1040 -c 0 -i 14 -a 0 -x {7.0 2.0 7 ------- null}
- -t 1.06190933333333 -s 0 -d 2 -p tcp -e 1040 -c 0 -i 14 -a 0 -x {7.0 2.0 7 ------- null}
h -t 1.06190933333333 -s 0 -d 2 -p tcp -e 1040 -c 0 -i 14 -a 0 -x {7.0 2.0 -1 ------- null}
r -t 1.067456 -s 1 -d 0 -p tcp -e 1040 -c 0 -i 15 -a 0 -x {7.0 2.0 8 ------- null}
+ -t 1.067456 -s 0 -d 2 -p tcp -e 1040 -c 0 -i 15 -a 0 -x {7.0 2.0 8 ------- null}
- -t 1.067456 -s 0 -d 2 -p tcp -e 1040 -c 0 -i 15 -a 0 -x {7.0 2.0 8 ------- null}
h -t 1.067456 -s 0 -d 2 -p tcp -e 1040 -c 0 -i 15 -a 0 -x {7.0 2.0 -1 ------- null}
r -t 1.06766933333333 -s 1 -d 0 -p tcp -e 40 -c 1 -i 16 -a 1 -x {8.0 3.0 0 ------- null}
+ -t 1.06766933333333 -s 0 -d 3 -p tcp -e 40 -c 1 -i 16 -a 1 -x {8.0 3.0 0 ------- null}
- -t 1.06766933333333 -s 0 -d 3 -p tcp -e 40 -c 1 -i 16 -a 1 -x {8.0 3.0 0 ------- null}
h -t 1.06766933333333 -s 0 -d 3 -p tcp -e 40 -c 1 -i 16 -a 1 -x {8.0 3.0 -1 ------- null}
r -t 1.073216 -s 1 -d 0 -p tcp -e 1040 -c 0 -i 17 -a 0 -x {7.0 2.0 9 ------- null}
+ -t 1.073216 -s 0 -d 2 -p tcp -e 1040 -c 0 -i 17 -a 0 -x {7.0 2.0 9 ------- null}
- -t 1.073216 -s 0 -d 2 -p tcp -e 1040 -c 0 -i 17 -a 0 -x {7.0 2.0 9 ------- null}
h -t 1.073216 -s 0 -d 2 -p tcp -e 1040 -c 0 -i 17 -a 0 -x {7.0 2.0 -1 ------- null}
r -t 1.07876266666667 -s 1 -d 0 -p tcp -e 1040 -c 0 -i 18 -a 0 -x {7.0 2.0 10 ------- null}
+ -t 1.07876266666667 -s 0 -d 2 -p tcp -e 1040 -c 0 -i 18 -a 0 -x {7.0 2.0 10 ------- null}
- -t 1.07876266666667 -s 0 -d 2 -p tcp -e 1040 -c 0 -i 18 -a 0 -x {7.0 2.0 10 ------- null}
h -t 1.07876266666667 -s 0 -d 2 -p tcp -e 1040 -c 0 -i 18 -a 0 -x {7.0 2.0 -1 ------- null}
r -t 1.08274133333333 -s 0 -d 2 -p tcp -e 1040 -c 0 -i 14 -a 0 -x {7.0 2.0 7 ------- null}
+ -t 1.08274133333333 -s 2 -d 0 -p ack -e 40 -c 0 -i 23 -a 0 -x {2.0 7.0 7 ------- null}
- -t 1.08274133333333 -s 2 -d 0 -p ack -e 40 -c 0 -i 23 -a 0 -x {2.0 7.0 7 ------- null}
h -t 1.08274133333333 -s 2 -d 0 -p ack -e 40 -c 0 -i 23 -a 0 -x {2.0 7.0 -1 ------- null}
r -t 1.08430933333333 -s 1 -d 0 -p tcp -e 1040 -c 0 -i 19 -a 0 -x {7.0 2.0 11 ------- null}
+ -t 1.08430933333333 -s 0 -d 2 -p tcp -e 1040 -c 0 -i 19 -a 0 -x {7.0 2.0 11 ------- null}
- -t 1.08430933333333 -s 0 -d 2 -p tcp -e 1040 -c 0 -i 19 -a 0 -x {7.0 2.0 11 ------- null}
h -t 1.08430933333333 -s 0 -d 2 -p tcp -e 1040 -c 0 -i 19 -a 0 -x {7.0 2.0 -1 ------- null}
r -t 1.08770133333333 -s 0 -d 3 -p tcp -e 40 -c 1 -i 16 -a 1 -x {8.0 3.0 0 ------- null}
+ -t 1.08770133333333 -s 3 -d 0 -p ack -e 40 -c 1 -i 24 -a 1 -x {3.0 8.0 0 ------- null}
- -t 1.08770133333333 -s 3 -d 0 -p ack -e 40 -c 1 -i 24 -a 1 -x {3.0 8.0 0 ------- null}
h -t 1.08770133333333 -s 3 -d 0 -p ack -e 40 -c 1 -i 24 -a 1 -x {3.0 8.0 -1 ------- null}
r -t 1.088288 -s 0 -d 2 -p tcp -e 1040 -c 0 -i 15 -a 0 -x {7.0 2.0 8 ------- null}
+ -t 1.088288 -s 2 -d 0 -p ack -e 40 -c 0 -i 25 -a 0 -x {2.0 7.0 8 ------- null}
- -t 1.088288 -s 2 -d 0 -p ack -e 40 -c 0 -i 25 -a 0 -x {2.0 7.0 8 ------- null}
h -t 1.088288 -s 2 -d 0 -p ack -e 40 -c 0 -i 25 -a 0 -x {2.0 7.0 -1 ------- null}
r -t 1.089856 -s 1 -d 0 -p tcp -e 1040 -c 0 -i 20 -a 0 -x {7.0 2.0 12 ------- null}
+ -t 1.089856 -s 0 -d 2 -p tcp -e 1040 -c 0 -i 20 -a 0 -x {7.0 2.0 12 ------- null}
- -t 1.089856 -s 0 -d 2 -p tcp -e 1040 -c 0 -i 20 -a 0 -x {7.0 2.0 12 ------- null}
h -t 1.089856 -s 0 -d 2 -p tcp -e 1040 -c 0 -i 20 -a 0 -x {7.0 2.0 -1 ------- null}
r -t 1.094048 -s 0 -d 2 -p tcp -e 1040 -c 0 -i 17 -a 0 -x {7.0 2.0 9 ------- null}
+ -t 1.094048 -s 2 -d 0 -p ack -e 40 -c 0 -i 26 -a 0 -x {2.0 7.0 9 ------- null}
- -t 1.094048 -s 2 -d 0 -p ack -e 40 -c 0 -i 26 -a 0 -x {2.0 7.0 9 ------- null}
h -t 1.094048 -s 2 -d 0 -p ack -e 40 -c 0 -i 26 -a 0 -x {2.0 7.0 -1 ------- null}
r -t 1.09540266666667 -s 1 -d 0 -p tcp -e 1040 -c 0 -i 21 -a 0 -x {7.0 2.0 13 ------- null}
+ -t 1.09540266666667 -s 0 -d 2 -p tcp -e 1040 -c 0 -i 21 -a 0 -x {7.0 2.0 13 ------- null}
- -t 1.09540266666667 -s 0 -d 2 -p tcp -e 1040 -c 0 -i 21 -a 0 -x {7.0 2.0 13 ------- null}
h -t 1.09540266666667 -s 0 -d 2 -p tcp -e 1040 -c 0 -i 21 -a 0 -x {7.0 2.0 -1 ------- null}
r -t 1.09959466666667 -s 0 -d 2 -p tcp -e 1040 -c 0 -i 18 -a 0 -x {7.0 2.0 10 ------- null}
+ -t 1.09959466666667 -s 2 -d 0 -p ack -e 40 -c 0 -i 27 -a 0 -x {2.0 7.0 10 ------- null}
- -t 1.09959466666667 -s 2 -d 0 -p ack -e 40 -c 0 -i 27 -a 0 -x {2.0 7.0 10 ------- null}
h -t 1.09959466666667 -s 2 -d 0 -p ack -e 40 -c 0 -i 27 -a 0 -x {2.0 7.0 -1 ------- null}
r -t 1.10094933333333 -s 1 -d 0 -p tcp -e 1040 -c 0 -i 22 -a 0 -x {7.0 2.0 14 ------- null}
+ -t 1.10094933333333 -s 0 -d 2 -p tcp -e 1040 -c 0 -i 22 -a 0 -x {7.0 2.0 14 ------- null}
- -t 1.10094933333333 -s 0 -d 2 -p tcp -e 1040 -c 0 -i 22 -a 0 -x {7.0 2.0 14 ------- null}
h -t 1.10094933333333 -s 0 -d 2 -p tcp -e 1040 -c 0 -i 22 -a 0 -x {7.0 2.0 -1 ------- null}
r -t 1.10277333333333 -s 2 -d 0 -p ack -e 40 -c 0 -i 23 -a 0 -x {2.0 7.0 7 ------- null}
+ -t 1.10277333333333 -s 0 -d 1 -p ack -e 40 -c 0 -i 23 -a 0 -x {2.0 7.0 7 ------- null}
- -t 1.10277333333333 -s 0 -d 1 -p ack -e 40 -c 0 -i 23 -a 0 -x {2.0 7.0 7 ------- null}
h -t 1.10277333333333 -s 0 -d 1 -p ack -e 40 -c 0 -i 23 -a 0 -x {2.0 7.0 -1 ------- null}
r -t 1.10514133333333 -s 0 -d 2 -p tcp -e 1040 -c 0 -i 19 -a 0 -x {7.0 2.0 11 ------- null}
+ -t 1.10514133333333 -s 2 -d 0 -p ack -e 40 -c 0 -i 28 -a 0 -x {2.0 7.0 11 ------- null}
- -t 1.10514133333333 -s 2 -d 0 -p ack -e 40 -c 0 -i 28 -a 0 -x {2.0 7.0 11 ------- null}
h -t 1.10514133333333 -s 2 -d 0 -p ack -e 40 -c 0 -i 28 -a 0 -x {2.0 7.0 -1 ------- null}
r -t 1.10773333333333 -s 3 -d 0 -p ack -e 40 -c 1 -i 24 -a 1 -x {3.0 8.0 0 ------- null}
+ -t 1.10773333333333 -s 0 -d 1 -p ack -e 40 -c 1 -i 24 -a 1 -x {3.0 8.0 0 ------- null}
- -t 1.10773333333333 -s 0 -d 1 -p ack -e 40 -c 1 -i 24 -a 1 -x {3.0 8.0 0 ------- null}
h -t 1.10773333333333 -s 0 -d 1 -p ack -e 40 -c 1 -i 24 -a 1 -x {3.0 8.0 -1 ------- null}
r -t 1.10832 -s 2 -d 0 -p ack -e 40 -c 0 -i 25 -a 0 -x {2.0 7.0 8 ------- null}
+ -t 1.10832 -s 0 -d 1 -p ack -e 40 -c 0 -i 25 -a 0 -x {2.0 7.0 8 ------- null}
- -t 1.10832 -s 0 -d 1 -p ack -e 40 -c 0 -i 25 -a 0 -x {2.0 7.0 8 ------- null}
h -t 1.10832 -s 0 -d 1 -p ack -e 40 -c 0 -i 25 -a 0 -x {2.0 7.0 -1 ------- null}
r -t 1.110688 -s 0 -d 2 -p tcp -e 1040 -c 0 -i 20 -a 0 -x {7.0 2.0 12 ------- null}
+ -t 1.110688 -s 2 -d 0 -p ack -e 40 -c 0 -i 29 -a 0 -x {2.0 7.0 12 ------- null}
- -t 1.110688 -s 2 -d 0 -p ack -e 40 -c 0 -i 29 -a 0 -x {2.0 7.0 12 ------- null}
h -t 1.110688 -s 2 -d 0 -p ack -e 40 -c 0 -i 29 -a 0 -x {2.0 7.0 -1 ------- null}
r -t 1.11408 -s 2 -d 0 -p ack -e 40 -c 0 -i 26 -a 0 -x {2.0 7.0 9 ------- null}
+ -t 1.11408 -s 0 -d 1 -p ack -e 40 -c 0 -i 26 -a 0 -x {2.0 7.0 9 ------- null}
- -t 1.11408 -s 0 -d 1 -p ack -e 40 -c 0 -i 26 -a 0 -x {2.0 7.0 9 ------- null}
h -t 1.11408 -s 0 -d 1 -p ack -e 40 -c 0 -i 26 -a 0 -x {2.0 7.0 -1 ------- null}
r -t 1.11623466666667 -s 0 -d 2 -p tcp -e 1040 -c 0 -i 21 -a 0 -x {7.0 2.0 13 ------- null}
+ -t 1.11623466666667 -s 2 -d 0 -p ack -e 40 -c 0 -i 30 -a 0 -x {2.0 7.0 13 ------- null}
- -t 1.11623466666667 -s 2 -d 0 -p ack -e 40 -c 0 -i 30 -a 0 -x {2.0 7.0 13 ------- null}
h -t 1.11623466666667 -s 2 -d 0 -p ack -e 40 -c 0 -i 30 -a 0 -x {2.0 7.0 -1 ------- null}
r -t 1.11962666666667 -s 2 -d 0 -p ack -e 40 -c 0 -i 27 -a 0 -x {2.0 7.0 10 ------- null}
+ -t 1.11962666666667 -s 0 -d 1 -p ack -e 40 -c 0 -i 27 -a 0 -x {2.0 7.0 10 ------- null}
- -t 1.11962666666667 -s 0 -d 1 -p ack -e 40 -c 0 -i 27 -a 0 -x {2.0 7.0 10 ------- null}
h -t 1.11962666666667 -s 0 -d 1 -p ack -e 40 -c 0 -i 27 -a 0 -x {2.0 7.0 -1 ------- null}
r -t 1.12178133333333 -s 0 -d 2 -p tcp -e 1040 -c 0 -i 22 -a 0 -x {7.0 2.0 14 ------- null}
+ -t 1.12178133333333 -s 2 -d 0 -p ack -e 40 -c 0 -i 31 -a 0 -x {2.0 7.0 14 ------- null}
- -t 1.12178133333333 -s 2 -d 0 -p ack -e 40 -c 0 -i 31 -a 0 -x {2.0 7.0 14 ------- null}
h -t 1.12178133333333 -s 2 -d 0 -p ack -e 40 -c 0 -i 31 -a 0 -x {2.0 7.0 -1 ------- null}