+ 0.5 1 4 cbr 210 ------- 0 1.0 2.0 0 0
- 0.5 1 4 cbr 210 ------- 0 1.0 2.0 0 0
+ 0.5 0 4 cbr 210 ------- 0 0.0 3.0 0 1
- 0.5 0 4 cbr 210 ------- 0 0.0 3.0 0 1
+ 0.50375 1 4 cbr 210 ------- 0 1.0 2.0 1 2
- 0.50375 1 4 cbr 210 ------- 0 1.0 2.0 1 2
+ 0.50375 0 4 cbr 210 ------- 0 0.0 3.0 1 3
- 0.50375 0 4 cbr 210 ------- 0 0.0 3.0 1 3
+ 0.5075 1 4 cbr 210 ------- 0 1.0 2.0 2 4
- 0.5075 1 4 cbr 210 ------- 0 1.0 2.0 2 4
+ 0.5075 0 4 cbr 210 ------- 0 0.0 3.0 2 5
- 0.5075 0 4 cbr 210 ------- 0 0.0 3.0 2 5
+ 0.51125 1 4 cbr 210 ------- 0 1.0 2.0 3 6
- 0.51125 1 4 cbr 210 ------- 0 1.0 2.0 3 6
+ 0.51125 0 4 cbr 210 ------- 0 0.0 3.0 3 7
- 0.51125 0 4 cbr 210 ------- 0 0.0 3.0 3 7
r 0.51168 1 4 cbr 210 ------- 0 1.0 2.0 0 0
+ 0.51168 4 2 cbr 210 ------- 0 1.0 2.0 0 0
- 0.51168 4 2 cbr 210 ------- 0 1.0 2.0 0 0
r 0.51168 0 4 cbr 210 ------- 0 0.0 3.0 0 1
+ 0.51168 4 3 cbr 210 ------- 0 0.0 3.0 0 1
- 0.51168 4 3 cbr 210 ------- 0 0.0 3.0 0 1
+ 0.515 1 4 cbr 210 ------- 0 1.0 2.0 4 8
- 0.515 1 4 cbr 210 ------- 0 1.0 2.0 4 8
+ 0.515 0 4 cbr 210 ------- 0 0.0 3.0 4 9
- 0.515 0 4 cbr 210 ------- 0 0.0 3.0 4 9
r 0.51543 1 4 cbr 210 ------- 0 1.0 2.0 1 2
+ 0.51543 4 2 cbr 210 ------- 0 1.0 2.0 1 2
- 0.51543 4 2 cbr 210 ------- 0 1.0 2.0 1 2
r 0.51543 0 4 cbr 210 ------- 0 0.0 3.0 1 3
+ 0.51543 4 3 cbr 210 ------- 0 0.0 3.0 1 3
- 0.51543 4 3 cbr 210 ------- 0 0.0 3.0 1 3
+ 0.51875 1 4 cbr 210 ------- 0 1.0 2.0 5 10
- 0.51875 1 4 cbr 210 ------- 0 1.0 2.0 5 10
+ 0.51875 0 4 cbr 210 ------- 0 0.0 3.0 5 11
- 0.51875 0 4 cbr 210 ------- 0 0.0 3.0 5 11
r 0.51918 1 4 cbr 210 ------- 0 1.0 2.0 2 4
+ 0.51918 4 2 cbr 210 ------- 0 1.0 2.0 2 4
- 0.51918 4 2 cbr 210 ------- 0 1.0 2.0 2 4
r 0.51918 0 4 cbr 210 ------- 0 0.0 3.0 2 5
+ 0.51918 4 3 cbr 210 ------- 0 0.0 3.0 2 5
- 0.51918 4 3 cbr 210 ------- 0 0.0 3.0 2 5
+ 0.5225 1 4 cbr 210 ------- 0 1.0 2.0 6 12
- 0.5225 1 4 cbr 210 ------- 0 1.0 2.0 6 12
+ 0.5225 0 4 cbr 210 ------- 0 0.0 3.0 6 13
- 0.5225 0 4 cbr 210 ------- 0 0.0 3.0 6 13
r 0.52293 1 4 cbr 210 ------- 0 1.0 2.0 3 6
+ 0.52293 4 2 cbr 210 ------- 0 1.0 2.0 3 6
- 0.52293 4 2 cbr 210 ------- 0 1.0 2.0 3 6
r 0.52293 0 4 cbr 210 ------- 0 0.0 3.0 3 7
+ 0.52293 4 3 cbr 210 ------- 0 0.0 3.0 3 7
- 0.52293 4 3 cbr 210 ------- 0 0.0 3.0 3 7
r 0.52336 4 2 cbr 210 ------- 0 1.0 2.0 0 0
r 0.52336 4 3 cbr 210 ------- 0 0.0 3.0 0 1
+ 0.52625 1 4 cbr 210 ------- 0 1.0 2.0 7 14
- 0.52625 1 4 cbr 210 ------- 0 1.0 2.0 7 14
+ 0.52625 0 4 cbr 210 ------- 0 0.0 3.0 7 15
- 0.52625 0 4 cbr 210 ------- 0 0.0 3.0 7 15
r 0.52668 1 4 cbr 210 ------- 0 1.0 2.0 4 8
+ 0.52668 4 2 cbr 210 ------- 0 1.0 2.0 4 8
- 0.52668 4 2 cbr 210 ------- 0 1.0 2.0 4 8
r 0.52668 0 4 cbr 210 ------- 0 0.0 3.0 4 9
+ 0.52668 4 3 cbr 210 ------- 0 0.0 3.0 4 9
- 0.52668 4 3 cbr 210 ------- 0 0.0 3.0 4 9
r 0.52711 4 2 cbr 210 ------- 0 1.0 2.0 1 2
r 0.52711 4 3 cbr 210 ------- 0 0.0 3.0 1 3
+ 0.53 1 4 cbr 210 ------- 0 1.0 2.0 8 16
- 0.53 1 4 cbr 210 ------- 0 1.0 2.0 8 16
+ 0.53 0 4 cbr 210 ------- 0 0.0 3.0 8 17
- 0.53 0 4 cbr 210 ------- 0 0.0 3.0 8 17
r 0.53043 1 4 cbr 210 ------- 0 1.0 2.0 5 10
+ 0.53043 4 2 cbr 210 ------- 0 1.0 2.0 5 10
- 0.53043 4 2 cbr 210 ------- 0 1.0 2.0 5 10
r 0.53043 0 4 cbr 210 ------- 0 0.0 3.0 5 11
+ 0.53043 4 3 cbr 210 ------- 0 0.0 3.0 5 11
- 0.53043 4 3 cbr 210 ------- 0 0.0 3.0 5 11
r 0.53086 4 2 cbr 210 ------- 0 1.0 2.0 2 4
r 0.53086 4 3 cbr 210 ------- 0 0.0 3.0 2 5
+ 0.53375 1 4 cbr 210 ------- 0 1.0 2.0 9 18
- 0.53375 1 4 cbr 210 ------- 0 1.0 2.0 9 18
+ 0.53375 0 4 cbr 210 ------- 0 0.0 3.0 9 19
- 0.53375 0 4 cbr 210 ------- 0 0.0 3.0 9 19
r 0.53418 1 4 cbr 210 ------- 0 1.0 2.0 6 12
+ 0.53418 4 2 cbr 210 ------- 0 1.0 2.0 6 12
- 0.53418 4 2 cbr 210 ------- 0 1.0 2.0 6 12
r 0.53418 0 4 cbr 210 ------- 0 0.0 3.0 6 13
+ 0.53418 4 3 cbr 210 ------- 0 0.0 3.0 6 13
- 0.53418 4 3 cbr 210 ------- 0 0.0 3.0 6 13
r 0.53461 4 2 cbr 210 ------- 0 1.0 2.0 3 6
r 0.53461 4 3 cbr 210 ------- 0 0.0 3.0 3 7
+ 0.5375 1 4 cbr 210 ------- 0 1.0 2.0 10 20
- 0.5375 1 4 cbr 210 ------- 0 1.0 2.0 10 20
+ 0.5375 0 4 cbr 210 ------- 0 0.0 3.0 10 21
- 0.5375 0 4 cbr 210 ------- 0 0.0 3.0 10 21
r 0.53793 1 4 cbr 210 ------- 0 1.0 2.0 7 14
+ 0.53793 4 2 cbr 210 ------- 0 1.0 2.0 7 14
- 0.53793 4 2 cbr 210 ------- 0 1.0 2.0 7 14
r 0.53793 0 4 cbr 210 ------- 0 0.0 3.0 7 15
+ 0.53793 4 3 cbr 210 ------- 0 0.0 3.0 7 15
- 0.53793 4 3 cbr 210 ------- 0 0.0 3.0 7 15
r 0.53836 4 2 cbr 210 ------- 0 1.0 2.0 4 8
r 0.53836 4 3 cbr 210 ------- 0 0.0 3.0 4 9
+ 0.54125 1 4 cbr 210 ------- 0 1.0 2.0 11 22
- 0.54125 1 4 cbr 210 ------- 0 1.0 2.0 11 22
+ 0.54125 0 4 cbr 210 ------- 0 0.0 3.0 11 23
- 0.54125 0 4 cbr 210 ------- 0 0.0 3.0 11 23
r 0.54168 1 4 cbr 210 ------- 0 1.0 2.0 8 16
+ 0.54168 4 2 cbr 210 ------- 0 1.0 2.0 8 16
- 0.54168 4 2 cbr 210 ------- 0 1.0 2.0 8 16
r 0.54168 0 4 cbr 210 ------- 0 0.0 3.0 8 17
+ 0.54168 4 3 cbr 210 ------- 0 0.0 3.0 8 17
- 0.54168 4 3 cbr 210 ------- 0 0.0 3.0 8 17
r 0.54211 4 2 cbr 210 ------- 0 1.0 2.0 5 10
r 0.54211 4 3 cbr 210 ------- 0 0.0 3.0 5 11
+ 0.545 1 4 cbr 210 ------- 0 1.0 2.0 12 24
- 0.545 1 4 cbr 210 ------- 0 1.0 2.0 12 24
+ 0.545 0 4 cbr 210 ------- 0 0.0 3.0 12 25
- 0.545 0 4 cbr 210 ------- 0 0.0 3.0 12 25
r 0.54543 1 4 cbr 210 ------- 0 1.0 2.0 9 18
+ 0.54543 4 2 cbr 210 ------- 0 1.0 2.0 9 18
- 0.54543 4 2 cbr 210 ------- 0 1.0 2.0 9 18
r 0.54543 0 4 cbr 210 ------- 0 0.0 3.0 9 19
+ 0.54543 4 3 cbr 210 ------- 0 0.0 3.0 9 19
- 0.54543 4 3 cbr 210 ------- 0 0.0 3.0 9 19
r 0.54586 4 2 cbr 210 ------- 0 1.0 2.0 6 12
r 0.54586 4 3 cbr 210 ------- 0 0.0 3.0 6 13
+ 0.54875 1 4 cbr 210 ------- 0 1.0 2.0 13 26
- 0.54875 1 4 cbr 210 ------- 0 1.0 2.0 13 26
+ 0.54875 0 4 cbr 210 ------- 0 0.0 3.0 13 27
- 0.54875 0 4 cbr 210 ------- 0 0.0 3.0 13 27
r 0.54918 1 4 cbr 210 ------- 0 1.0 2.0 10 20
+ 0.54918 4 2 cbr 210 ------- 0 1.0 2.0 10 20
- 0.54918 4 2 cbr 210 ------- 0 1.0 2.0 10 20
r 0.54918 0 4 cbr 210 ------- 0 0.0 3.0 10 21
+ 0.54918 4 3 cbr 210 ------- 0 0.0 3.0 10 21
- 0.54918 4 3 cbr 210 ------- 0 0.0 3.0 10 21
r 0.54961 4 2 cbr 210 ------- 0 1.0 2.0 7 14
r 0.54961 4 3 cbr 210 ------- 0 0.0 3.0 7 15
+ 0.5525 1 4 cbr 210 ------- 0 1.0 2.0 14 28
- 0.5525 1 4 cbr 210 ------- 0 1.0 2.0 14 28
+ 0.5525 0 4 cbr 210 ------- 0 0.0 3.0 14 29
- 0.5525 0 4 cbr 210 ------- 0 0.0 3.0 14 29
r 0.55293 1 4 cbr 210 ------- 0 1.0 2.0 11 22
+ 0.55293 4 2 cbr 210 ------- 0 1.0 2.0 11 22
- 0.55293 4 2 cbr 210 ------- 0 1.0 2.0 11 22
r 0.55293 0 4 cbr 210 ------- 0 0.0 3.0 11 23
+ 0.55293 4 3 cbr 210 ------- 0 0.0 3.0 11 23
- 0.55293 4 3 cbr 210 ------- 0 0.0 3.0 11 23
r 0.55336 4 2 cbr 210 ------- 0 1.0 2.0 8 16
r 0.55336 4 3 cbr 210 ------- 0 0.0 3.0 8 17
+ 0.55625 1 4 cbr 210 ------- 0 1.0 2.0 15 30
- 0.55625 1 4 cbr 210 ------- 0 1.0 2.0 15 30
+ 0.55625 0 4 cbr 210 ------- 0 0.0 3.0 15 31
- 0.55625 0 4 cbr 210 ------- 0 0.0 3.0 15 31
r 0.55668 1 4 cbr 210 ------- 0 1.0 2.0 12 24
+ 0.55668 4 2 cbr 210 ------- 0 1.0 2.0 12 24
- 0.55668 4 2 cbr 210 ------- 0 1.0 2.0 12 24
r 0.55668 0 4 cbr 210 ------- 0 0.0 3.0 12 25
+ 0.55668 4 3 cbr 210 ------- 0 0.0 3.0 12 25
- 0.55668 4 3 cbr 210 ------- 0 0.0 3.0 12 25
r 0.55711 4 2 cbr 210 ------- 0 1.0 2.0 9 18
r 0.55711 4 3 cbr 210 ------- 0 0.0 3.0 9 19
+ 0.56 1 4 cbr 210 ------- 0 1.0 2.0 16 32
- 0.56 1 4 cbr 210 ------- 0 1.0 2.0 16 32
+ 0.56 0 4 cbr 210 ------- 0 0.0 3.0 16 33
- 0.56 0 4 cbr 210 ------- 0 0.0 3.0 16 33
r 0.56043 1 4 cbr 210 ------- 0 1.0 2.0 13 26
+ 0.56043 4 2 cbr 210 ------- 0 1.0 2.0 13 26
- 0.56043 4 2 cbr 210 ------- 0 1.0 2.0 13 26
r 0.56043 0 4 cbr 210 ------- 0 0.0 3.0 13 27
+ 0.56043 4 3 cbr 210 ------- 0 0.0 3.0 13 27
- 0.56043 4 3 cbr 210 ------- 0 0.0 3.0 13 27
r 0.56086 4 2 cbr 210 ------- 0 1.0 2.0 10 20
r 0.56086 4 3 cbr 210 ------- 0 0.0 3.0 10 21
+ 0.56375 1 4 cbr 210 ------- 0 1.0 2.0 17 34
- 0.56375 1 4 cbr 210 ------- 0 1.0 2.0 17 34
+ 0.56375 0 4 cbr 210 ------- 0 0.0 3.0 17 35
- 0.56375 0 4 cbr 210 ------- 0 0.0 3.0 17 35
r 0.56418 1 4 cbr 210 ------- 0 1.0 2.0 14 28
+ 0.56418 4 2 cbr 210 ------- 0 1.0 2.0 14 28
- 0.56418 4 2 cbr 210 ------- 0 1.0 2.0 14 28
r 0.56418 0 4 cbr 210 ------- 0 0.0 3.0 14 29
+ 0.56418 4 3 cbr 210 ------- 0 0.0 3.0 14 29
- 0.56418 4 3 cbr 210 ------- 0 0.0 3.0 14 29
r 0.56461 4 2 cbr 210 ------- 0 1.0 2.0 11 22
r 0.56461 4 3 cbr 210 ------- 0 0.0 3.0 11 23
+ 0.5675 1 4 cbr 210 ------- 0 1.0 2.0 18 36
- 0.5675 1 4 cbr 210 ------- 0 1.0 2.0 18 36
+ 0.5675 0 4 cbr 210 ------- 0 0.0 3.0 18 37
- 0.5675 0 4 cbr 210 ------- 0 0.0 3.0 18 37
r 0.56793 1 4 cbr 210 ------- 0 1.0 2.0 15 30
+ 0.56793 4 2 cbr 210 ------- 0 1.0 2.0 15 30
- 0.56793 4 2 cbr 210 ------- 0 1.0 2.0 15 30
r 0.56793 0 4 cbr 210 ------- 0 0.0 3.0 15 31
+ 0.56793 4 3 cbr 210 ------- 0 0.0 3.0 15 31
- 0.56793 4 3 cbr 210 ------- 0 0.0 3.0 15 31
r 0.56836 4 2 cbr 210 ------- 0 1.0 2.0 12 24
r 0.56836 4 3 cbr 210 ------- 0 0.0 3.0 12 25
+ 0.57125 1 4 cbr 210 ------- 0 1.0 2.0 19 38
- 0.57125 1 4 cbr 210 ------- 0 1.0 2.0 19 38
+ 0.57125 0 4 cbr 210 ------- 0 0.0 3.0 19 39
- 0.57125 0 4 cbr 210 ------- 0 0.0 3.0 19 39
r 0.57168 1 4 cbr 210 ------- 0 1.0 2.0 16 32
+ 0.57168 4 2 cbr 210 ------- 0 1.0 2.0 16 32
- 0.57168 4 2 cbr 210 ------- 0 1.0 2.0 16 32
r 0.57168 0 4 cbr 210 ------- 0 0.0 3.0 16 33
+ 0.57168 4 3 cbr 210 ------- 0 0.0 3.0 16 33
- 0.57168 4 3 cbr 210 ------- 0 0.0 3.0 16 33
r 0.57211 4 2 cbr 210 ------- 0 1.0 2.0 13 26
r 0.57211 4 3 cbr 210 ------- 0 0.0 3.0 13 27
+ 0.575 1 4 cbr 210 ------- 0 1.0 2.0 20 40
- 0.575 1 4 cbr 210 ------- 0 1.0 2.0 20 40
+ 0.575 0 4 cbr 210 ------- 0 0.0 3.0 20 41
- 0.575 0 4 cbr 210 ------- 0 0.0 3.0 20 41
r 0.57543 1 4 cbr 210 ------- 0 1.0 2.0 17 34
+ 0.57543 4 2 cbr 210 ------- 0 1.0 2.0 17 34
- 0.57543 4 2 cbr 210 ------- 0 1.0 2.0 17 34
r 0.57543 0 4 cbr 210 ------- 0 0.0 3.0 17 35
+ 0.57543 4 3 cbr 210 ------- 0 0.0 3.0 17 35
- 0.57543 4 3 cbr 210 ------- 0 0.0 3.0 17 35
r 0.57586 4 2 cbr 210 ------- 0 1.0 2.0 14 28
r 0.57586 4 3 cbr 210 ------- 0 0.0 3.0 14 29
+ 0.57875 1 4 cbr 210 ------- 0 1.0 2.0 21 42
- 0.57875 1 4 cbr 210 ------- 0 1.0 2.0 21 42
+ 0.57875 0 4 cbr 210 ------- 0 0.0 3.0 21 43
- 0.57875 0 4 cbr 210 ------- 0 0.0 3.0 21 43
r 0.57918 1 4 cbr 210 ------- 0 1.0 2.0 18 36
+ 0.57918 4 2 cbr 210 ------- 0 1.0 2.0 18 36
- 0.57918 4 2 cbr 210 ------- 0 1.0 2.0 18 36
r 0.57918 0 4 cbr 210 ------- 0 0.0 3.0 18 37
+ 0.57918 4 3 cbr 210 ------- 0 0.0 3.0 18 37
- 0.57918 4 3 cbr 210 ------- 0 0.0 3.0 18 37
r 0.57961 4 2 cbr 210 ------- 0 1.0 2.0 15 30
r 0.57961 4 3 cbr 210 ------- 0 0.0 3.0 15 31
+ 0.5825 1 4 cbr 210 ------- 0 1.0 2.0 22 44
- 0.5825 1 4 cbr 210 ------- 0 1.0 2.0 22 44
+ 0.5825 0 4 cbr 210 ------- 0 0.0 3.0 22 45
- 0.5825 0 4 cbr 210 ------- 0 0.0 3.0 22 45
r 0.58293 1 4 cbr 210 ------- 0 1.0 2.0 19 38
+ 0.58293 4 2 cbr 210 ------- 0 1.0 2.0 19 38
- 0.58293 4 2 cbr 210 ------- 0 1.0 2.0 19 38
r 0.58293 0 4 cbr 210 ------- 0 0.0 3.0 19 39
+ 0.58293 4 3 cbr 210 ------- 0 0.0 3.0 19 39
- 0.58293 4 3 cbr 210 ------- 0 0.0 3.0 19 39
r 0.58336 4 2 cbr 210 ------- 0 1.0 2.0 16 32
r 0.58336 4 3 cbr 210 ------- 0 0.0 3.0 16 33
+ 0.58625 1 4 cbr 210 ------- 0 1.0 2.0 23 46
- 0.58625 1 4 cbr 210 ------- 0 1.0 2.0 23 46
+ 0.58625 0 4 cbr 210 ------- 0 0.0 3.0 23 47
- 0.58625 0 4 cbr 210 ------- 0 0.0 3.0 23 47
r 0.58668 1 4 cbr 210 ------- 0 1.0 2.0 20 40
+ 0.58668 4 2 cbr 210 ------- 0 1.0 2.0 20 40
- 0.58668 4 2 cbr 210 ------- 0 1.0 2.0 20 40
r 0.58668 0 4 cbr 210 ------- 0 0.0 3.0 20 41
+ 0.58668 4 3 cbr 210 ------- 0 0.0 3.0 20 41
- 0.58668 4 3 cbr 210 ------- 0 0.0 3.0 20 41
r 0.58711 4 2 cbr 210 ------- 0 1.0 2.0 17 34
r 0.58711 4 3 cbr 210 ------- 0 0.0 3.0 17 35
+ 0.59 1 4 cbr 210 ------- 0 1.0 2.0 24 48
- 0.59 1 4 cbr 210 ------- 0 1.0 2.0 24 48
+ 0.59 0 4 cbr 210 ------- 0 0.0 3.0 24 49
- 0.59 0 4 cbr 210 ------- 0 0.0 3.0 24 49
r 0.59043 1 4 cbr 210 ------- 0 1.0 2.0 21 42
+ 0.59043 4 2 cbr 210 ------- 0 1.0 2.0 21 42
- 0.59043 4 2 cbr 210 ------- 0 1.0 2.0 21 42
r 0.59043 0 4 cbr 210 ------- 0 0.0 3.0 21 43
+ 0.59043 4 3 cbr 210 ------- 0 0.0 3.0 21 43
- 0.59043 4 3 cbr 210 ------- 0 0.0 3.0 21 43
r 0.59086 4 2 cbr 210 ------- 0 1.0 2.0 18 36
r 0.59086 4 3 cbr 210 ------- 0 0.0 3.0 18 37
+ 0.59375 1 4 cbr 210 ------- 0 1.0 2.0 25 50
- 0.59375 1 4 cbr 210 ------- 0 1.0 2.0 25 50
+ 0.59375 0 4 cbr 210 ------- 0 0.0 3.0 25 51
- 0.59375 0 4 cbr 210 ------- 0 0.0 3.0 25 51
r 0.59418 1 4 cbr 210 ------- 0 1.0 2.0 22 44
+ 0.59418 4 2 cbr 210 ------- 0 1.0 2.0 22 44
- 0.59418 4 2 cbr 210 ------- 0 1.0 2.0 22 44
r 0.59418 0 4 cbr 210 ------- 0 0.0 3.0 22 45
+ 0.59418 4 3 cbr 210 ------- 0 0.0 3.0 22 45
- 0.59418 4 3 cbr 210 ------- 0 0.0 3.0 22 45
r 0.59461 4 2 cbr 210 ------- 0 1.0 2.0 19 38
r 0.59461 4 3 cbr 210 ------- 0 0.0 3.0 19 39
+ 0.5975 1 4 cbr 210 ------- 0 1.0 2.0 26 52
- 0.5975 1 4 cbr 210 ------- 0 1.0 2.0 26 52
+ 0.5975 0 4 cbr 210 ------- 0 0.0 3.0 26 53
- 0.5975 0 4 cbr 210 ------- 0 0.0 3.0 26 53
r 0.59793 1 4 cbr 210 ------- 0 1.0 2.0 23 46
+ 0.59793 4 2 cbr 210 ------- 0 1.0 2.0 23 46
- 0.59793 4 2 cbr 210 ------- 0 1.0 2.0 23 46
r 0.59793 0 4 cbr 210 ------- 0 0.0 3.0 23 47
+ 0.59793 4 3 cbr 210 ------- 0 0.0 3.0 23 47
- 0.59793 4 3 cbr 210 ------- 0 0.0 3.0 23 47
r 0.59836 4 2 cbr 210 ------- 0 1.0 2.0 20 40
r 0.59836 4 3 cbr 210 ------- 0 0.0 3.0 20 41
+ 0.60125 1 4 cbr 210 ------- 0 1.0 2.0 27 54
- 0.60125 1 4 cbr 210 ------- 0 1.0 2.0 27 54
+ 0.60125 0 4 cbr 210 ------- 0 0.0 3.0 27 55
- 0.60125 0 4 cbr 210 ------- 0 0.0 3.0 27 55
r 0.60168 1 4 cbr 210 ------- 0 1.0 2.0 24 48
+ 0.60168 4 2 cbr 210 ------- 0 1.0 2.0 24 48
- 0.60168 4 2 cbr 210 ------- 0 1.0 2.0 24 48
r 0.60168 0 4 cbr 210 ------- 0 0.0 3.0 24 49
+ 0.60168 4 3 cbr 210 ------- 0 0.0 3.0 24 49
- 0.60168 4 3 cbr 210 ------- 0 0.0 3.0 24 49
r 0.60211 4 2 cbr 210 ------- 0 1.0 2.0 21 42
r 0.60211 4 3 cbr 210 ------- 0 0.0 3.0 21 43
+ 0.605 1 4 cbr 210 ------- 0 1.0 2.0 28 56
- 0.605 1 4 cbr 210 ------- 0 1.0 2.0 28 56
+ 0.605 0 4 cbr 210 ------- 0 0.0 3.0 28 57
- 0.605 0 4 cbr 210 ------- 0 0.0 3.0 28 57
r 0.60543 1 4 cbr 210 ------- 0 1.0 2.0 25 50
+ 0.60543 4 2 cbr 210 ------- 0 1.0 2.0 25 50
- 0.60543 4 2 cbr 210 ------- 0 1.0 2.0 25 50
r 0.60543 0 4 cbr 210 ------- 0 0.0 3.0 25 51
+ 0.60543 4 3 cbr 210 ------- 0 0.0 3.0 25 51
- 0.60543 4 3 cbr 210 ------- 0 0.0 3.0 25 51
r 0.60586 4 2 cbr 210 ------- 0 1.0 2.0 22 44
r 0.60586 4 3 cbr 210 ------- 0 0.0 3.0 22 45
+ 0.60875 1 4 cbr 210 ------- 0 1.0 2.0 29 58
- 0.60875 1 4 cbr 210 ------- 0 1.0 2.0 29 58
+ 0.60875 0 4 cbr 210 ------- 0 0.0 3.0 29 59
- 0.60875 0 4 cbr 210 ------- 0 0.0 3.0 29 59
r 0.60918 1 4 cbr 210 ------- 0 1.0 2.0 26 52
+ 0.60918 4 2 cbr 210 ------- 0 1.0 2.0 26 52
- 0.60918 4 2 cbr 210 ------- 0 1.0 2.0 26 52
r 0.60918 0 4 cbr 210 ------- 0 0.0 3.0 26 53
+ 0.60918 4 3 cbr 210 ------- 0 0.0 3.0 26 53
- 0.60918 4 3 cbr 210 ------- 0 0.0 3.0 26 53
r 0.60961 4 2 cbr 210 ------- 0 1.0 2.0 23 46
r 0.60961 4 3 cbr 210 ------- 0 0.0 3.0 23 47
+ 0.6125 1 4 cbr 210 ------- 0 1.0 2.0 30 60
- 0.6125 1 4 cbr 210 ------- 0 1.0 2.0 30 60
+ 0.6125 0 4 cbr 210 ------- 0 0.0 3.0 30 61
- 0.6125 0 4 cbr 210 ------- 0 0.0 3.0 30 61
r 0.61293 1 4 cbr 210 ------- 0 1.0 2.0 27 54
+ 0.61293 4 2 cbr 210 ------- 0 1.0 2.0 27 54
- 0.61293 4 2 cbr 210 ------- 0 1.0 2.0 27 54
r 0.61293 0 4 cbr 210 ------- 0 0.0 3.0 27 55
+ 0.61293 4 3 cbr 210 ------- 0 0.0 3.0 27 55
- 0.61293 4 3 cbr 210 ------- 0 0.0 3.0 27 55
r 0.61336 4 2 cbr 210 ------- 0 1.0 2.0 24 48
r 0.61336 4 3 cbr 210 ------- 0 0.0 3.0 24 49
+ 0.61625 1 4 cbr 210 ------- 0 1.0 2.0 31 62
- 0.61625 1 4 cbr 210 ------- 0 1.0 2.0 31 62
+ 0.61625 0 4 cbr 210 ------- 0 0.0 3.0 31 63
- 0.61625 0 4 cbr 210 ------- 0 0.0 3.0 31 63
r 0.61668 1 4 cbr 210 ------- 0 1.0 2.0 28 56
+ 0.61668 4 2 cbr 210 ------- 0 1.0 2.0 28 56
- 0.61668 4 2 cbr 210 ------- 0 1.0 2.0 28 56
r 0.61668 0 4 cbr 210 ------- 0 0.0 3.0 28 57
+ 0.61668 4 3 cbr 210 ------- 0 0.0 3.0 28 57
- 0.61668 4 3 cbr 210 ------- 0 0.0 3.0 28 57
r 0.61711 4 2 cbr 210 ------- 0 1.0 2.0 25 50
r 0.61711 4 3 cbr 210 ------- 0 0.0 3.0 25 51
+ 0.62 1 4 cbr 210 ------- 0 1.0 2.0 32 64
- 0.62 1 4 cbr 210 ------- 0 1.0 2.0 32 64
+ 0.62 0 4 cbr 210 ------- 0 0.0 3.0 32 65
- 0.62 0 4 cbr 210 ------- 0 0.0 3.0 32 65
r 0.62043 1 4 cbr 210 ------- 0 1.0 2.0 29 58
+ 0.62043 4 2 cbr 210 ------- 0 1.0 2.0 29 58
- 0.62043 4 2 cbr 210 ------- 0 1.0 2.0 29 58
r 0.62043 0 4 cbr 210 ------- 0 0.0 3.0 29 59
+ 0.62043 4 3 cbr 210 ------- 0 0.0 3.0 29 59
- 0.62043 4 3 cbr 210 ------- 0 0.0 3.0 29 59
r 0.62086 4 2 cbr 210 ------- 0 1.0 2.0 26 52
r 0.62086 4 3 cbr 210 ------- 0 0.0 3.0 26 53
+ 0.62375 1 4 cbr 210 ------- 0 1.0 2.0 33 66
- 0.62375 1 4 cbr 210 ------- 0 1.0 2.0 33 66
+ 0.62375 0 4 cbr 210 ------- 0 0.0 3.0 33 67
- 0.62375 0 4 cbr 210 ------- 0 0.0 3.0 33 67
r 0.62418 1 4 cbr 210 ------- 0 1.0 2.0 30 60
+ 0.62418 4 2 cbr 210 ------- 0 1.0 2.0 30 60
- 0.62418 4 2 cbr 210 ------- 0 1.0 2.0 30 60
r 0.62418 0 4 cbr 210 ------- 0 0.0 3.0 30 61
+ 0.62418 4 3 cbr 210 ------- 0 0.0 3.0 30 61
- 0.62418 4 3 cbr 210 ------- 0 0.0 3.0 30 61
r 0.62461 4 2 cbr 210 ------- 0 1.0 2.0 27 54
r 0.62461 4 3 cbr 210 ------- 0 0.0 3.0 27 55
+ 0.6275 1 4 cbr 210 ------- 0 1.0 2.0 34 68
- 0.6275 1 4 cbr 210 ------- 0 1.0 2.0 34 68
+ 0.6275 0 4 cbr 210 ------- 0 0.0 3.0 34 69
- 0.6275 0 4 cbr 210 ------- 0 0.0 3.0 34 69
r 0.62793 1 4 cbr 210 ------- 0 1.0 2.0 31 62
+ 0.62793 4 2 cbr 210 ------- 0 1.0 2.0 31 62
- 0.62793 4 2 cbr 210 ------- 0 1.0 2.0 31 62
r 0.62793 0 4 cbr 210 ------- 0 0.0 3.0 31 63
+ 0.62793 4 3 cbr 210 ------- 0 0.0 3.0 31 63
- 0.62793 4 3 cbr 210 ------- 0 0.0 3.0 31 63
r 0.62836 4 2 cbr 210 ------- 0 1.0 2.0 28 56
r 0.62836 4 3 cbr 210 ------- 0 0.0 3.0 28 57
+ 0.63125 1 4 cbr 210 ------- 0 1.0 2.0 35 70
- 0.63125 1 4 cbr 210 ------- 0 1.0 2.0 35 70
+ 0.63125 0 4 cbr 210 ------- 0 0.0 3.0 35 71
- 0.63125 0 4 cbr 210 ------- 0 0.0 3.0 35 71
r 0.63168 1 4 cbr 210 ------- 0 1.0 2.0 32 64
+ 0.63168 4 2 cbr 210 ------- 0 1.0 2.0 32 64
- 0.63168 4 2 cbr 210 ------- 0 1.0 2.0 32 64
r 0.63168 0 4 cbr 210 ------- 0 0.0 3.0 32 65
+ 0.63168 4 3 cbr 210 ------- 0 0.0 3.0 32 65
- 0.63168 4 3 cbr 210 ------- 0 0.0 3.0 32 65
r 0.63211 4 2 cbr 210 ------- 0 1.0 2.0 29 58
r 0.63211 4 3 cbr 210 ------- 0 0.0 3.0 29 59
+ 0.635 1 4 cbr 210 ------- 0 1.0 2.0 36 72
- 0.635 1 4 cbr 210 ------- 0 1.0 2.0 36 72
+ 0.635 0 4 cbr 210 ------- 0 0.0 3.0 36 73
- 0.635 0 4 cbr 210 ------- 0 0.0 3.0 36 73
r 0.63543 1 4 cbr 210 ------- 0 1.0 2.0 33 66
+ 0.63543 4 2 cbr 210 ------- 0 1.0 2.0 33 66
- 0.63543 4 2 cbr 210 ------- 0 1.0 2.0 33 66
r 0.63543 0 4 cbr 210 ------- 0 0.0 3.0 33 67
+ 0.63543 4 3 cbr 210 ------- 0 0.0 3.0 33 67
- 0.63543 4 3 cbr 210 ------- 0 0.0 3.0 33 67
r 0.63586 4 2 cbr 210 ------- 0 1.0 2.0 30 60
r 0.63586 4 3 cbr 210 ------- 0 0.0 3.0 30 61
+ 0.63875 1 4 cbr 210 ------- 0 1.0 2.0 37 74
- 0.63875 1 4 cbr 210 ------- 0 1.0 2.0 37 74
+ 0.63875 0 4 cbr 210 ------- 0 0.0 3.0 37 75
- 0.63875 0 4 cbr 210 ------- 0 0.0 3.0 37 75
r 0.63918 1 4 cbr 210 ------- 0 1.0 2.0 34 68
+ 0.63918 4 2 cbr 210 ------- 0 1.0 2.0 34 68
- 0.63918 4 2 cbr 210 ------- 0 1.0 2.0 34 68
r 0.63918 0 4 cbr 210 ------- 0 0.0 3.0 34 69
+ 0.63918 4 3 cbr 210 ------- 0 0.0 3.0 34 69
- 0.63918 4 3 cbr 210 ------- 0 0.0 3.0 34 69
r 0.63961 4 2 cbr 210 ------- 0 1.0 2.0 31 62
r 0.63961 4 3 cbr 210 ------- 0 0.0 3.0 31 63
+ 0.6425 1 4 cbr 210 ------- 0 1.0 2.0 38 76
- 0.6425 1 4 cbr 210 ------- 0 1.0 2.0 38 76
+ 0.6425 0 4 cbr 210 ------- 0 0.0 3.0 38 77
- 0.6425 0 4 cbr 210 ------- 0 0.0 3.0 38 77
r 0.64293 1 4 cbr 210 ------- 0 1.0 2.0 35 70
+ 0.64293 4 2 cbr 210 ------- 0 1.0 2.0 35 70
- 0.64293 4 2 cbr 210 ------- 0 1.0 2.0 35 70
r 0.64293 0 4 cbr 210 ------- 0 0.0 3.0 35 71
+ 0.64293 4 3 cbr 210 ------- 0 0.0 3.0 35 71
- 0.64293 4 3 cbr 210 ------- 0 0.0 3.0 35 71
r 0.64336 4 2 cbr 210 ------- 0 1.0 2.0 32 64
r 0.64336 4 3 cbr 210 ------- 0 0.0 3.0 32 65
+ 0.64625 1 4 cbr 210 ------- 0 1.0 2.0 39 78
- 0.64625 1 4 cbr 210 ------- 0 1.0 2.0 39 78
+ 0.64625 0 4 cbr 210 ------- 0 0.0 3.0 39 79
- 0.64625 0 4 cbr 210 ------- 0 0.0 3.0 39 79
r 0.64668 1 4 cbr 210 ------- 0 1.0 2.0 36 72
+ 0.64668 4 2 cbr 210 ------- 0 1.0 2.0 36 72
- 0.64668 4 2 cbr 210 ------- 0 1.0 2.0 36 72
r 0.64668 0 4 cbr 210 ------- 0 0.0 3.0 36 73
+ 0.64668 4 3 cbr 210 ------- 0 0.0 3.0 36 73
- 0.64668 4 3 cbr 210 ------- 0 0.0 3.0 36 73
r 0.64711 4 2 cbr 210 ------- 0 1.0 2.0 33 66
r 0.64711 4 3 cbr 210 ------- 0 0.0 3.0 33 67
+ 0.65 1 4 cbr 210 ------- 0 1.0 2.0 40 80
- 0.65 1 4 cbr 210 ------- 0 1.0 2.0 40 80
+ 0.65 0 4 cbr 210 ------- 0 0.0 3.0 40 81
- 0.65 0 4 cbr 210 ------- 0 0.0 3.0 40 81
r 0.65043 1 4 cbr 210 ------- 0 1.0 2.0 37 74
+ 0.65043 4 2 cbr 210 ------- 0 1.0 2.0 37 74
- 0.65043 4 2 cbr 210 ------- 0 1.0 2.0 37 74
r 0.65043 0 4 cbr 210 ------- 0 0.0 3.0 37 75
+ 0.65043 4 3 cbr 210 ------- 0 0.0 3.0 37 75
- 0.65043 4 3 cbr 210 ------- 0 0.0 3.0 37 75
r 0.65086 4 2 cbr 210 ------- 0 1.0 2.0 34 68
r 0.65086 4 3 cbr 210 ------- 0 0.0 3.0 34 69
+ 0.65375 1 4 cbr 210 ------- 0 1.0 2.0 41 82
- 0.65375 1 4 cbr 210 ------- 0 1.0 2.0 41 82
+ 0.65375 0 4 cbr 210 ------- 0 0.0 3.0 41 83
- 0.65375 0 4 cbr 210 ------- 0 0.0 3.0 41 83
r 0.65418 1 4 cbr 210 ------- 0 1.0 2.0 38 76
+ 0.65418 4 2 cbr 210 ------- 0 1.0 2.0 38 76
- 0.65418 4 2 cbr 210 ------- 0 1.0 2.0 38 76
r 0.65418 0 4 cbr 210 ------- 0 0.0 3.0 38 77
+ 0.65418 4 3 cbr 210 ------- 0 0.0 3.0 38 77
- 0.65418 4 3 cbr 210 ------- 0 0.0 3.0 38 77
r 0.65461 4 2 cbr 210 ------- 0 1.0 2.0 35 70
r 0.65461 4 3 cbr 210 ------- 0 0.0 3.0 35 71
+ 0.6575 1 4 cbr 210 ------- 0 1.0 2.0 42 84
- 0.6575 1 4 cbr 210 ------- 0 1.0 2.0 42 84
+ 0.6575 0 4 cbr 210 ------- 0 0.0 3.0 42 85
- 0.6575 0 4 cbr 210 ------- 0 0.0 3.0 42 85
r 0.65793 1 4 cbr 210 ------- 0 1.0 2.0 39 78
+ 0.65793 4 2 cbr 210 ------- 0 1.0 2.0 39 78
- 0.65793 4 2 cbr 210 ------- 0 1.0 2.0 39 78
r 0.65793 0 4 cbr 210 ------- 0 0.0 3.0 39 79
+ 0.65793 4 3 cbr 210 ------- 0 0.0 3.0 39 79
- 0.65793 4 3 cbr 210 ------- 0 0.0 3.0 39 79
r 0.65836 4 2 cbr 210 ------- 0 1.0 2.0 36 72
r 0.65836 4 3 cbr 210 ------- 0 0.0 3.0 36 73
+ 0.66125 1 4 cbr 210 ------- 0 1.0 2.0 43 86
- 0.66125 1 4 cbr 210 ------- 0 1.0 2.0 43 86
+ 0.66125 0 4 cbr 210 ------- 0 0.0 3.0 43 87
- 0.66125 0 4 cbr 210 ------- 0 0.0 3.0 43 87
r 0.66168 1 4 cbr 210 ------- 0 1.0 2.0 40 80
+ 0.66168 4 2 cbr 210 ------- 0 1.0 2.0 40 80
- 0.66168 4 2 cbr 210 ------- 0 1.0 2.0 40 80
r 0.66168 0 4 cbr 210 ------- 0 0.0 3.0 40 81
+ 0.66168 4 3 cbr 210 ------- 0 0.0 3.0 40 81
- 0.66168 4 3 cbr 210 ------- 0 0.0 3.0 40 81
r 0.66211 4 2 cbr 210 ------- 0 1.0 2.0 37 74
r 0.66211 4 3 cbr 210 ------- 0 0.0 3.0 37 75
+ 0.665 1 4 cbr 210 ------- 0 1.0 2.0 44 88
- 0.665 1 4 cbr 210 ------- 0 1.0 2.0 44 88
+ 0.665 0 4 cbr 210 ------- 0 0.0 3.0 44 89
- 0.665 0 4 cbr 210 ------- 0 0.0 3.0 44 89
r 0.66543 1 4 cbr 210 ------- 0 1.0 2.0 41 82
+ 0.66543 4 2 cbr 210 ------- 0 1.0 2.0 41 82
- 0.66543 4 2 cbr 210 ------- 0 1.0 2.0 41 82
r 0.66543 0 4 cbr 210 ------- 0 0.0 3.0 41 83
+ 0.66543 4 3 cbr 210 ------- 0 0.0 3.0 41 83
- 0.66543 4 3 cbr 210 ------- 0 0.0 3.0 41 83
r 0.66586 4 2 cbr 210 ------- 0 1.0 2.0 38 76
r 0.66586 4 3 cbr 210 ------- 0 0.0 3.0 38 77
+ 0.66875 1 4 cbr 210 ------- 0 1.0 2.0 45 90
- 0.66875 1 4 cbr 210 ------- 0 1.0 2.0 45 90
+ 0.66875 0 4 cbr 210 ------- 0 0.0 3.0 45 91
- 0.66875 0 4 cbr 210 ------- 0 0.0 3.0 45 91
r 0.66918 1 4 cbr 210 ------- 0 1.0 2.0 42 84
+ 0.66918 4 2 cbr 210 ------- 0 1.0 2.0 42 84
- 0.66918 4 2 cbr 210 ------- 0 1.0 2.0 42 84
r 0.66918 0 4 cbr 210 ------- 0 0.0 3.0 42 85
+ 0.66918 4 3 cbr 210 ------- 0 0.0 3.0 42 85
- 0.66918 4 3 cbr 210 ------- 0 0.0 3.0 42 85
r 0.66961 4 2 cbr 210 ------- 0 1.0 2.0 39 78
r 0.66961 4 3 cbr 210 ------- 0 0.0 3.0 39 79
+ 0.6725 1 4 cbr 210 ------- 0 1.0 2.0 46 92
- 0.6725 1 4 cbr 210 ------- 0 1.0 2.0 46 92
+ 0.6725 0 4 cbr 210 ------- 0 0.0 3.0 46 93
- 0.6725 0 4 cbr 210 ------- 0 0.0 3.0 46 93
r 0.67293 1 4 cbr 210 ------- 0 1.0 2.0 43 86
+ 0.67293 4 2 cbr 210 ------- 0 1.0 2.0 43 86
- 0.67293 4 2 cbr 210 ------- 0 1.0 2.0 43 86
r 0.67293 0 4 cbr 210 ------- 0 0.0 3.0 43 87
+ 0.67293 4 3 cbr 210 ------- 0 0.0 3.0 43 87
- 0.67293 4 3 cbr 210 ------- 0 0.0 3.0 43 87
r 0.67336 4 2 cbr 210 ------- 0 1.0 2.0 40 80
r 0.67336 4 3 cbr 210 ------- 0 0.0 3.0 40 81
+ 0.67625 1 4 cbr 210 ------- 0 1.0 2.0 47 94
- 0.67625 1 4 cbr 210 ------- 0 1.0 2.0 47 94
+ 0.67625 0 4 cbr 210 ------- 0 0.0 3.0 47 95
- 0.67625 0 4 cbr 210 ------- 0 0.0 3.0 47 95
r 0.67668 1 4 cbr 210 ------- 0 1.0 2.0 44 88
+ 0.67668 4 2 cbr 210 ------- 0 1.0 2.0 44 88
- 0.67668 4 2 cbr 210 ------- 0 1.0 2.0 44 88
r 0.67668 0 4 cbr 210 ------- 0 0.0 3.0 44 89
+ 0.67668 4 3 cbr 210 ------- 0 0.0 3.0 44 89
- 0.67668 4 3 cbr 210 ------- 0 0.0 3.0 44 89
r 0.67711 4 2 cbr 210 ------- 0 1.0 2.0 41 82
r 0.67711 4 3 cbr 210 ------- 0 0.0 3.0 41 83
+ 0.68 1 4 cbr 210 ------- 0 1.0 2.0 48 96
- 0.68 1 4 cbr 210 ------- 0 1.0 2.0 48 96
+ 0.68 0 4 cbr 210 ------- 0 0.0 3.0 48 97
- 0.68 0 4 cbr 210 ------- 0 0.0 3.0 48 97
r 0.68043 1 4 cbr 210 ------- 0 1.0 2.0 45 90
+ 0.68043 4 2 cbr 210 ------- 0 1.0 2.0 45 90
- 0.68043 4 2 cbr 210 ------- 0 1.0 2.0 45 90
r 0.68043 0 4 cbr 210 ------- 0 0.0 3.0 45 91
+ 0.68043 4 3 cbr 210 ------- 0 0.0 3.0 45 91
- 0.68043 4 3 cbr 210 ------- 0 0.0 3.0 45 91
r 0.68086 4 2 cbr 210 ------- 0 1.0 2.0 42 84
r 0.68086 4 3 cbr 210 ------- 0 0.0 3.0 42 85
+ 0.68375 1 4 cbr 210 ------- 0 1.0 2.0 49 98
- 0.68375 1 4 cbr 210 ------- 0 1.0 2.0 49 98
+ 0.68375 0 4 cbr 210 ------- 0 0.0 3.0 49 99
- 0.68375 0 4 cbr 210 ------- 0 0.0 3.0 49 99
r 0.68418 1 4 cbr 210 ------- 0 1.0 2.0 46 92
+ 0.68418 4 2 cbr 210 ------- 0 1.0 2.0 46 92
- 0.68418 4 2 cbr 210 ------- 0 1.0 2.0 46 92
r 0.68418 0 4 cbr 210 ------- 0 0.0 3.0 46 93
+ 0.68418 4 3 cbr 210 ------- 0 0.0 3.0 46 93
- 0.68418 4 3 cbr 210 ------- 0 0.0 3.0 46 93
r 0.68461 4 2 cbr 210 ------- 0 1.0 2.0 43 86
r 0.68461 4 3 cbr 210 ------- 0 0.0 3.0 43 87
+ 0.6875 1 4 cbr 210 ------- 0 1.0 2.0 50 100
- 0.6875 1 4 cbr 210 ------- 0 1.0 2.0 50 100
+ 0.6875 0 4 cbr 210 ------- 0 0.0 3.0 50 101
- 0.6875 0 4 cbr 210 ------- 0 0.0 3.0 50 101
r 0.68793 1 4 cbr 210 ------- 0 1.0 2.0 47 94
+ 0.68793 4 2 cbr 210 ------- 0 1.0 2.0 47 94
- 0.68793 4 2 cbr 210 ------- 0 1.0 2.0 47 94
r 0.68793 0 4 cbr 210 ------- 0 0.0 3.0 47 95
+ 0.68793 4 3 cbr 210 ------- 0 0.0 3.0 47 95
- 0.68793 4 3 cbr 210 ------- 0 0.0 3.0 47 95
r 0.68836 4 2 cbr 210 ------- 0 1.0 2.0 44 88
r 0.68836 4 3 cbr 210 ------- 0 0.0 3.0 44 89
+ 0.69125 1 4 cbr 210 ------- 0 1.0 2.0 51 102
- 0.69125 1 4 cbr 210 ------- 0 1.0 2.0 51 102
+ 0.69125 0 4 cbr 210 ------- 0 0.0 3.0 51 103
- 0.69125 0 4 cbr 210 ------- 0 0.0 3.0 51 103
r 0.69168 1 4 cbr 210 ------- 0 1.0 2.0 48 96
+ 0.69168 4 2 cbr 210 ------- 0 1.0 2.0 48 96
- 0.69168 4 2 cbr 210 ------- 0 1.0 2.0 48 96
r 0.69168 0 4 cbr 210 ------- 0 0.0 3.0 48 97
+ 0.69168 4 3 cbr 210 ------- 0 0.0 3.0 48 97
- 0.69168 4 3 cbr 210 ------- 0 0.0 3.0 48 97
r 0.69211 4 2 cbr 210 ------- 0 1.0 2.0 45 90
r 0.69211 4 3 cbr 210 ------- 0 0.0 3.0 45 91
+ 0.695 1 4 cbr 210 ------- 0 1.0 2.0 52 104
- 0.695 1 4 cbr 210 ------- 0 1.0 2.0 52 104
+ 0.695 0 4 cbr 210 ------- 0 0.0 3.0 52 105
- 0.695 0 4 cbr 210 ------- 0 0.0 3.0 52 105
r 0.69543 1 4 cbr 210 ------- 0 1.0 2.0 49 98
+ 0.69543 4 2 cbr 210 ------- 0 1.0 2.0 49 98
- 0.69543 4 2 cbr 210 ------- 0 1.0 2.0 49 98
r 0.69543 0 4 cbr 210 ------- 0 0.0 3.0 49 99
+ 0.69543 4 3 cbr 210 ------- 0 0.0 3.0 49 99
- 0.69543 4 3 cbr 210 ------- 0 0.0 3.0 49 99
r 0.69586 4 2 cbr 210 ------- 0 1.0 2.0 46 92
r 0.69586 4 3 cbr 210 ------- 0 0.0 3.0 46 93
+ 0.69875 1 4 cbr 210 ------- 0 1.0 2.0 53 106
- 0.69875 1 4 cbr 210 ------- 0 1.0 2.0 53 106
+ 0.69875 0 4 cbr 210 ------- 0 0.0 3.0 53 107
- 0.69875 0 4 cbr 210 ------- 0 0.0 3.0 53 107
r 0.69918 1 4 cbr 210 ------- 0 1.0 2.0 50 100
+ 0.69918 4 2 cbr 210 ------- 0 1.0 2.0 50 100
- 0.69918 4 2 cbr 210 ------- 0 1.0 2.0 50 100
r 0.69918 0 4 cbr 210 ------- 0 0.0 3.0 50 101
+ 0.69918 4 3 cbr 210 ------- 0 0.0 3.0 50 101
- 0.69918 4 3 cbr 210 ------- 0 0.0 3.0 50 101
r 0.69961 4 2 cbr 210 ------- 0 1.0 2.0 47 94
r 0.69961 4 3 cbr 210 ------- 0 0.0 3.0 47 95
+ 0.7025 1 4 cbr 210 ------- 0 1.0 2.0 54 108
- 0.7025 1 4 cbr 210 ------- 0 1.0 2.0 54 108
+ 0.7025 0 4 cbr 210 ------- 0 0.0 3.0 54 109
- 0.7025 0 4 cbr 210 ------- 0 0.0 3.0 54 109
r 0.70293 1 4 cbr 210 ------- 0 1.0 2.0 51 102
+ 0.70293 4 2 cbr 210 ------- 0 1.0 2.0 51 102
- 0.70293 4 2 cbr 210 ------- 0 1.0 2.0 51 102
r 0.70293 0 4 cbr 210 ------- 0 0.0 3.0 51 103
+ 0.70293 4 3 cbr 210 ------- 0 0.0 3.0 51 103
- 0.70293 4 3 cbr 210 ------- 0 0.0 3.0 51 103
r 0.70336 4 2 cbr 210 ------- 0 1.0 2.0 48 96
r 0.70336 4 3 cbr 210 ------- 0 0.0 3.0 48 97
+ 0.70625 1 4 cbr 210 ------- 0 1.0 2.0 55 110
- 0.70625 1 4 cbr 210 ------- 0 1.0 2.0 55 110
+ 0.70625 0 4 cbr 210 ------- 0 0.0 3.0 55 111
- 0.70625 0 4 cbr 210 ------- 0 0.0 3.0 55 111
r 0.70668 1 4 cbr 210 ------- 0 1.0 2.0 52 104
+ 0.70668 4 2 cbr 210 ------- 0 1.0 2.0 52 104
- 0.70668 4 2 cbr 210 ------- 0 1.0 2.0 52 104
r 0.70668 0 4 cbr 210 ------- 0 0.0 3.0 52 105
+ 0.70668 4 3 cbr 210 ------- 0 0.0 3.0 52 105
- 0.70668 4 3 cbr 210 ------- 0 0.0 3.0 52 105
r 0.70711 4 2 cbr 210 ------- 0 1.0 2.0 49 98
r 0.70711 4 3 cbr 210 ------- 0 0.0 3.0 49 99
+ 0.71 1 4 cbr 210 ------- 0 1.0 2.0 56 112
- 0.71 1 4 cbr 210 ------- 0 1.0 2.0 56 112
+ 0.71 0 4 cbr 210 ------- 0 0.0 3.0 56 113
- 0.71 0 4 cbr 210 ------- 0 0.0 3.0 56 113
r 0.71043 1 4 cbr 210 ------- 0 1.0 2.0 53 106
+ 0.71043 4 2 cbr 210 ------- 0 1.0 2.0 53 106
- 0.71043 4 2 cbr 210 ------- 0 1.0 2.0 53 106
r 0.71043 0 4 cbr 210 ------- 0 0.0 3.0 53 107
+ 0.71043 4 3 cbr 210 ------- 0 0.0 3.0 53 107
- 0.71043 4 3 cbr 210 ------- 0 0.0 3.0 53 107
r 0.71086 4 2 cbr 210 ------- 0 1.0 2.0 50 100
r 0.71086 4 3 cbr 210 ------- 0 0.0 3.0 50 101
+ 0.71375 1 4 cbr 210 ------- 0 1.0 2.0 57 114
- 0.71375 1 4 cbr 210 ------- 0 1.0 2.0 57 114
+ 0.71375 0 4 cbr 210 ------- 0 0.0 3.0 57 115
- 0.71375 0 4 cbr 210 ------- 0 0.0 3.0 57 115
r 0.71418 1 4 cbr 210 ------- 0 1.0 2.0 54 108