V -t * -v 1.0a5 -a 0
A -t * -n 1 -p 0 -o 0x7fffffff -c 30 -a 1
A -t * -h 1 -m 1073741823 -s 0
n -t * -a 4 -s 4 -S UP -v circle -c black -i black
n -t * -a 0 -s 0 -S UP -v circle -c black -i black
n -t * -a 1 -s 1 -S UP -v circle -c black -i black
n -t * -a 2 -s 2 -S UP -v circle -c black -i black
n -t * -a 3 -s 3 -S UP -v circle -c black -i black
l -t * -s 4 -d 0 -S UP -r 1000000 -D 0.01 -c black
l -t * -s 4 -d 1 -S UP -r 1000000 -D 0.01 -c black
l -t * -s 4 -d 2 -S UP -r 1000000 -D 0.01 -c black
l -t * -s 4 -d 3 -S UP -r 1000000 -D 0.01 -c black
+ -t 0.5 -s 1 -d 4 -p cbr -e 210 -c 0 -i 0 -a 0 -x {1.0 2.0 0 ------- null}
- -t 0.5 -s 1 -d 4 -p cbr -e 210 -c 0 -i 0 -a 0 -x {1.0 2.0 0 ------- null}
h -t 0.5 -s 1 -d 4 -p cbr -e 210 -c 0 -i 0 -a 0 -x {1.0 2.0 -1 ------- null}
+ -t 0.5 -s 0 -d 4 -p cbr -e 210 -c 0 -i 1 -a 0 -x {0.0 3.0 0 ------- null}
- -t 0.5 -s 0 -d 4 -p cbr -e 210 -c 0 -i 1 -a 0 -x {0.0 3.0 0 ------- null}
h -t 0.5 -s 0 -d 4 -p cbr -e 210 -c 0 -i 1 -a 0 -x {0.0 3.0 -1 ------- null}
+ -t 0.50375 -s 1 -d 4 -p cbr -e 210 -c 0 -i 2 -a 0 -x {1.0 2.0 1 ------- null}
- -t 0.50375 -s 1 -d 4 -p cbr -e 210 -c 0 -i 2 -a 0 -x {1.0 2.0 1 ------- null}
h -t 0.50375 -s 1 -d 4 -p cbr -e 210 -c 0 -i 2 -a 0 -x {1.0 2.0 -1 ------- null}
+ -t 0.50375 -s 0 -d 4 -p cbr -e 210 -c 0 -i 3 -a 0 -x {0.0 3.0 1 ------- null}
- -t 0.50375 -s 0 -d 4 -p cbr -e 210 -c 0 -i 3 -a 0 -x {0.0 3.0 1 ------- null}
h -t 0.50375 -s 0 -d 4 -p cbr -e 210 -c 0 -i 3 -a 0 -x {0.0 3.0 -1 ------- null}
+ -t 0.5075 -s 1 -d 4 -p cbr -e 210 -c 0 -i 4 -a 0 -x {1.0 2.0 2 ------- null}
- -t 0.5075 -s 1 -d 4 -p cbr -e 210 -c 0 -i 4 -a 0 -x {1.0 2.0 2 ------- null}
h -t 0.5075 -s 1 -d 4 -p cbr -e 210 -c 0 -i 4 -a 0 -x {1.0 2.0 -1 ------- null}
+ -t 0.5075 -s 0 -d 4 -p cbr -e 210 -c 0 -i 5 -a 0 -x {0.0 3.0 2 ------- null}
- -t 0.5075 -s 0 -d 4 -p cbr -e 210 -c 0 -i 5 -a 0 -x {0.0 3.0 2 ------- null}
h -t 0.5075 -s 0 -d 4 -p cbr -e 210 -c 0 -i 5 -a 0 -x {0.0 3.0 -1 ------- null}
+ -t 0.51125 -s 1 -d 4 -p cbr -e 210 -c 0 -i 6 -a 0 -x {1.0 2.0 3 ------- null}
- -t 0.51125 -s 1 -d 4 -p cbr -e 210 -c 0 -i 6 -a 0 -x {1.0 2.0 3 ------- null}
h -t 0.51125 -s 1 -d 4 -p cbr -e 210 -c 0 -i 6 -a 0 -x {1.0 2.0 -1 ------- null}
+ -t 0.51125 -s 0 -d 4 -p cbr -e 210 -c 0 -i 7 -a 0 -x {0.0 3.0 3 ------- null}
- -t 0.51125 -s 0 -d 4 -p cbr -e 210 -c 0 -i 7 -a 0 -x {0.0 3.0 3 ------- null}
h -t 0.51125 -s 0 -d 4 -p cbr -e 210 -c 0 -i 7 -a 0 -x {0.0 3.0 -1 ------- null}
r -t 0.51168 -s 1 -d 4 -p cbr -e 210 -c 0 -i 0 -a 0 -x {1.0 2.0 0 ------- null}
+ -t 0.51168 -s 4 -d 2 -p cbr -e 210 -c 0 -i 0 -a 0 -x {1.0 2.0 0 ------- null}
- -t 0.51168 -s 4 -d 2 -p cbr -e 210 -c 0 -i 0 -a 0 -x {1.0 2.0 0 ------- null}
h -t 0.51168 -s 4 -d 2 -p cbr -e 210 -c 0 -i 0 -a 0 -x {1.0 2.0 -1 ------- null}
r -t 0.51168 -s 0 -d 4 -p cbr -e 210 -c 0 -i 1 -a 0 -x {0.0 3.0 0 ------- null}
+ -t 0.51168 -s 4 -d 3 -p cbr -e 210 -c 0 -i 1 -a 0 -x {0.0 3.0 0 ------- null}
- -t 0.51168 -s 4 -d 3 -p cbr -e 210 -c 0 -i 1 -a 0 -x {0.0 3.0 0 ------- null}
h -t 0.51168 -s 4 -d 3 -p cbr -e 210 -c 0 -i 1 -a 0 -x {0.0 3.0 -1 ------- null}
+ -t 0.515 -s 1 -d 4 -p cbr -e 210 -c 0 -i 8 -a 0 -x {1.0 2.0 4 ------- null}
- -t 0.515 -s 1 -d 4 -p cbr -e 210 -c 0 -i 8 -a 0 -x {1.0 2.0 4 ------- null}
h -t 0.515 -s 1 -d 4 -p cbr -e 210 -c 0 -i 8 -a 0 -x {1.0 2.0 -1 ------- null}
+ -t 0.515 -s 0 -d 4 -p cbr -e 210 -c 0 -i 9 -a 0 -x {0.0 3.0 4 ------- null}
- -t 0.515 -s 0 -d 4 -p cbr -e 210 -c 0 -i 9 -a 0 -x {0.0 3.0 4 ------- null}
h -t 0.515 -s 0 -d 4 -p cbr -e 210 -c 0 -i 9 -a 0 -x {0.0 3.0 -1 ------- null}
r -t 0.51543 -s 1 -d 4 -p cbr -e 210 -c 0 -i 2 -a 0 -x {1.0 2.0 1 ------- null}
+ -t 0.51543 -s 4 -d 2 -p cbr -e 210 -c 0 -i 2 -a 0 -x {1.0 2.0 1 ------- null}
- -t 0.51543 -s 4 -d 2 -p cbr -e 210 -c 0 -i 2 -a 0 -x {1.0 2.0 1 ------- null}
h -t 0.51543 -s 4 -d 2 -p cbr -e 210 -c 0 -i 2 -a 0 -x {1.0 2.0 -1 ------- null}
r -t 0.51543 -s 0 -d 4 -p cbr -e 210 -c 0 -i 3 -a 0 -x {0.0 3.0 1 ------- null}
+ -t 0.51543 -s 4 -d 3 -p cbr -e 210 -c 0 -i 3 -a 0 -x {0.0 3.0 1 ------- null}
- -t 0.51543 -s 4 -d 3 -p cbr -e 210 -c 0 -i 3 -a 0 -x {0.0 3.0 1 ------- null}
h -t 0.51543 -s 4 -d 3 -p cbr -e 210 -c 0 -i 3 -a 0 -x {0.0 3.0 -1 ------- null}
+ -t 0.51875 -s 1 -d 4 -p cbr -e 210 -c 0 -i 10 -a 0 -x {1.0 2.0 5 ------- null}
- -t 0.51875 -s 1 -d 4 -p cbr -e 210 -c 0 -i 10 -a 0 -x {1.0 2.0 5 ------- null}
h -t 0.51875 -s 1 -d 4 -p cbr -e 210 -c 0 -i 10 -a 0 -x {1.0 2.0 -1 ------- null}
+ -t 0.51875 -s 0 -d 4 -p cbr -e 210 -c 0 -i 11 -a 0 -x {0.0 3.0 5 ------- null}
- -t 0.51875 -s 0 -d 4 -p cbr -e 210 -c 0 -i 11 -a 0 -x {0.0 3.0 5 ------- null}
h -t 0.51875 -s 0 -d 4 -p cbr -e 210 -c 0 -i 11 -a 0 -x {0.0 3.0 -1 ------- null}
r -t 0.51918 -s 1 -d 4 -p cbr -e 210 -c 0 -i 4 -a 0 -x {1.0 2.0 2 ------- null}
+ -t 0.51918 -s 4 -d 2 -p cbr -e 210 -c 0 -i 4 -a 0 -x {1.0 2.0 2 ------- null}
- -t 0.51918 -s 4 -d 2 -p cbr -e 210 -c 0 -i 4 -a 0 -x {1.0 2.0 2 ------- null}
h -t 0.51918 -s 4 -d 2 -p cbr -e 210 -c 0 -i 4 -a 0 -x {1.0 2.0 -1 ------- null}
r -t 0.51918 -s 0 -d 4 -p cbr -e 210 -c 0 -i 5 -a 0 -x {0.0 3.0 2 ------- null}
+ -t 0.51918 -s 4 -d 3 -p cbr -e 210 -c 0 -i 5 -a 0 -x {0.0 3.0 2 ------- null}
- -t 0.51918 -s 4 -d 3 -p cbr -e 210 -c 0 -i 5 -a 0 -x {0.0 3.0 2 ------- null}
h -t 0.51918 -s 4 -d 3 -p cbr -e 210 -c 0 -i 5 -a 0 -x {0.0 3.0 -1 ------- null}
+ -t 0.5225 -s 1 -d 4 -p cbr -e 210 -c 0 -i 12 -a 0 -x {1.0 2.0 6 ------- null}
- -t 0.5225 -s 1 -d 4 -p cbr -e 210 -c 0 -i 12 -a 0 -x {1.0 2.0 6 ------- null}
h -t 0.5225 -s 1 -d 4 -p cbr -e 210 -c 0 -i 12 -a 0 -x {1.0 2.0 -1 ------- null}
+ -t 0.5225 -s 0 -d 4 -p cbr -e 210 -c 0 -i 13 -a 0 -x {0.0 3.0 6 ------- null}
- -t 0.5225 -s 0 -d 4 -p cbr -e 210 -c 0 -i 13 -a 0 -x {0.0 3.0 6 ------- null}
h -t 0.5225 -s 0 -d 4 -p cbr -e 210 -c 0 -i 13 -a 0 -x {0.0 3.0 -1 ------- null}
r -t 0.52293 -s 1 -d 4 -p cbr -e 210 -c 0 -i 6 -a 0 -x {1.0 2.0 3 ------- null}
+ -t 0.52293 -s 4 -d 2 -p cbr -e 210 -c 0 -i 6 -a 0 -x {1.0 2.0 3 ------- null}
- -t 0.52293 -s 4 -d 2 -p cbr -e 210 -c 0 -i 6 -a 0 -x {1.0 2.0 3 ------- null}
h -t 0.52293 -s 4 -d 2 -p cbr -e 210 -c 0 -i 6 -a 0 -x {1.0 2.0 -1 ------- null}
r -t 0.52293 -s 0 -d 4 -p cbr -e 210 -c 0 -i 7 -a 0 -x {0.0 3.0 3 ------- null}
+ -t 0.52293 -s 4 -d 3 -p cbr -e 210 -c 0 -i 7 -a 0 -x {0.0 3.0 3 ------- null}
- -t 0.52293 -s 4 -d 3 -p cbr -e 210 -c 0 -i 7 -a 0 -x {0.0 3.0 3 ------- null}
h -t 0.52293 -s 4 -d 3 -p cbr -e 210 -c 0 -i 7 -a 0 -x {0.0 3.0 -1 ------- null}
r -t 0.52336 -s 4 -d 2 -p cbr -e 210 -c 0 -i 0 -a 0 -x {1.0 2.0 0 ------- null}
r -t 0.52336 -s 4 -d 3 -p cbr -e 210 -c 0 -i 1 -a 0 -x {0.0 3.0 0 ------- null}
+ -t 0.52625 -s 1 -d 4 -p cbr -e 210 -c 0 -i 14 -a 0 -x {1.0 2.0 7 ------- null}
- -t 0.52625 -s 1 -d 4 -p cbr -e 210 -c 0 -i 14 -a 0 -x {1.0 2.0 7 ------- null}
h -t 0.52625 -s 1 -d 4 -p cbr -e 210 -c 0 -i 14 -a 0 -x {1.0 2.0 -1 ------- null}
+ -t 0.52625 -s 0 -d 4 -p cbr -e 210 -c 0 -i 15 -a 0 -x {0.0 3.0 7 ------- null}
- -t 0.52625 -s 0 -d 4 -p cbr -e 210 -c 0 -i 15 -a 0 -x {0.0 3.0 7 ------- null}
h -t 0.52625 -s 0 -d 4 -p cbr -e 210 -c 0 -i 15 -a 0 -x {0.0 3.0 -1 ------- null}
r -t 0.52668 -s 1 -d 4 -p cbr -e 210 -c 0 -i 8 -a 0 -x {1.0 2.0 4 ------- null}
+ -t 0.52668 -s 4 -d 2 -p cbr -e 210 -c 0 -i 8 -a 0 -x {1.0 2.0 4 ------- null}
- -t 0.52668 -s 4 -d 2 -p cbr -e 210 -c 0 -i 8 -a 0 -x {1.0 2.0 4 ------- null}
h -t 0.52668 -s 4 -d 2 -p cbr -e 210 -c 0 -i 8 -a 0 -x {1.0 2.0 -1 ------- null}
r -t 0.52668 -s 0 -d 4 -p cbr -e 210 -c 0 -i 9 -a 0 -x {0.0 3.0 4 ------- null}
+ -t 0.52668 -s 4 -d 3 -p cbr -e 210 -c 0 -i 9 -a 0 -x {0.0 3.0 4 ------- null}
- -t 0.52668 -s 4 -d 3 -p cbr -e 210 -c 0 -i 9 -a 0 -x {0.0 3.0 4 ------- null}
h -t 0.52668 -s 4 -d 3 -p cbr -e 210 -c 0 -i 9 -a 0 -x {0.0 3.0 -1 ------- null}
r -t 0.52711 -s 4 -d 2 -p cbr -e 210 -c 0 -i 2 -a 0 -x {1.0 2.0 1 ------- null}
r -t 0.52711 -s 4 -d 3 -p cbr -e 210 -c 0 -i 3 -a 0 -x {0.0 3.0 1 ------- null}
+ -t 0.53 -s 1 -d 4 -p cbr -e 210 -c 0 -i 16 -a 0 -x {1.0 2.0 8 ------- null}
- -t 0.53 -s 1 -d 4 -p cbr -e 210 -c 0 -i 16 -a 0 -x {1.0 2.0 8 ------- null}
h -t 0.53 -s 1 -d 4 -p cbr -e 210 -c 0 -i 16 -a 0 -x {1.0 2.0 -1 ------- null}
+ -t 0.53 -s 0 -d 4 -p cbr -e 210 -c 0 -i 17 -a 0 -x {0.0 3.0 8 ------- null}
- -t 0.53 -s 0 -d 4 -p cbr -e 210 -c 0 -i 17 -a 0 -x {0.0 3.0 8 ------- null}
h -t 0.53 -s 0 -d 4 -p cbr -e 210 -c 0 -i 17 -a 0 -x {0.0 3.0 -1 ------- null}
r -t 0.53043 -s 1 -d 4 -p cbr -e 210 -c 0 -i 10 -a 0 -x {1.0 2.0 5 ------- null}
+ -t 0.53043 -s 4 -d 2 -p cbr -e 210 -c 0 -i 10 -a 0 -x {1.0 2.0 5 ------- null}
- -t 0.53043 -s 4 -d 2 -p cbr -e 210 -c 0 -i 10 -a 0 -x {1.0 2.0 5 ------- null}
h -t 0.53043 -s 4 -d 2 -p cbr -e 210 -c 0 -i 10 -a 0 -x {1.0 2.0 -1 ------- null}
r -t 0.53043 -s 0 -d 4 -p cbr -e 210 -c 0 -i 11 -a 0 -x {0.0 3.0 5 ------- null}
+ -t 0.53043 -s 4 -d 3 -p cbr -e 210 -c 0 -i 11 -a 0 -x {0.0 3.0 5 ------- null}
- -t 0.53043 -s 4 -d 3 -p cbr -e 210 -c 0 -i 11 -a 0 -x {0.0 3.0 5 ------- null}
h -t 0.53043 -s 4 -d 3 -p cbr -e 210 -c 0 -i 11 -a 0 -x {0.0 3.0 -1 ------- null}
r -t 0.53086 -s 4 -d 2 -p cbr -e 210 -c 0 -i 4 -a 0 -x {1.0 2.0 2 ------- null}
r -t 0.53086 -s 4 -d 3 -p cbr -e 210 -c 0 -i 5 -a 0 -x {0.0 3.0 2 ------- null}
+ -t 0.53375 -s 1 -d 4 -p cbr -e 210 -c 0 -i 18 -a 0 -x {1.0 2.0 9 ------- null}
- -t 0.53375 -s 1 -d 4 -p cbr -e 210 -c 0 -i 18 -a 0 -x {1.0 2.0 9 ------- null}
h -t 0.53375 -s 1 -d 4 -p cbr -e 210 -c 0 -i 18 -a 0 -x {1.0 2.0 -1 ------- null}
+ -t 0.53375 -s 0 -d 4 -p cbr -e 210 -c 0 -i 19 -a 0 -x {0.0 3.0 9 ------- null}
- -t 0.53375 -s 0 -d 4 -p cbr -e 210 -c 0 -i 19 -a 0 -x {0.0 3.0 9 ------- null}
h -t 0.53375 -s 0 -d 4 -p cbr -e 210 -c 0 -i 19 -a 0 -x {0.0 3.0 -1 ------- null}
r -t 0.53418 -s 1 -d 4 -p cbr -e 210 -c 0 -i 12 -a 0 -x {1.0 2.0 6 ------- null}
+ -t 0.53418 -s 4 -d 2 -p cbr -e 210 -c 0 -i 12 -a 0 -x {1.0 2.0 6 ------- null}
- -t 0.53418 -s 4 -d 2 -p cbr -e 210 -c 0 -i 12 -a 0 -x {1.0 2.0 6 ------- null}
h -t 0.53418 -s 4 -d 2 -p cbr -e 210 -c 0 -i 12 -a 0 -x {1.0 2.0 -1 ------- null}
r -t 0.53418 -s 0 -d 4 -p cbr -e 210 -c 0 -i 13 -a 0 -x {0.0 3.0 6 ------- null}
+ -t 0.53418 -s 4 -d 3 -p cbr -e 210 -c 0 -i 13 -a 0 -x {0.0 3.0 6 ------- null}
- -t 0.53418 -s 4 -d 3 -p cbr -e 210 -c 0 -i 13 -a 0 -x {0.0 3.0 6 ------- null}
h -t 0.53418 -s 4 -d 3 -p cbr -e 210 -c 0 -i 13 -a 0 -x {0.0 3.0 -1 ------- null}
r -t 0.53461 -s 4 -d 2 -p cbr -e 210 -c 0 -i 6 -a 0 -x {1.0 2.0 3 ------- null}
r -t 0.53461 -s 4 -d 3 -p cbr -e 210 -c 0 -i 7 -a 0 -x {0.0 3.0 3 ------- null}
+ -t 0.5375 -s 1 -d 4 -p cbr -e 210 -c 0 -i 20 -a 0 -x {1.0 2.0 10 ------- null}
- -t 0.5375 -s 1 -d 4 -p cbr -e 210 -c 0 -i 20 -a 0 -x {1.0 2.0 10 ------- null}
h -t 0.5375 -s 1 -d 4 -p cbr -e 210 -c 0 -i 20 -a 0 -x {1.0 2.0 -1 ------- null}
+ -t 0.5375 -s 0 -d 4 -p cbr -e 210 -c 0 -i 21 -a 0 -x {0.0 3.0 10 ------- null}
- -t 0.5375 -s 0 -d 4 -p cbr -e 210 -c 0 -i 21 -a 0 -x {0.0 3.0 10 ------- null}
h -t 0.5375 -s 0 -d 4 -p cbr -e 210 -c 0 -i 21 -a 0 -x {0.0 3.0 -1 ------- null}
r -t 0.53793 -s 1 -d 4 -p cbr -e 210 -c 0 -i 14 -a 0 -x {1.0 2.0 7 ------- null}
+ -t 0.53793 -s 4 -d 2 -p cbr -e 210 -c 0 -i 14 -a 0 -x {1.0 2.0 7 ------- null}
- -t 0.53793 -s 4 -d 2 -p cbr -e 210 -c 0 -i 14 -a 0 -x {1.0 2.0 7 ------- null}
h -t 0.53793 -s 4 -d 2 -p cbr -e 210 -c 0 -i 14 -a 0 -x {1.0 2.0 -1 ------- null}
r -t 0.53793 -s 0 -d 4 -p cbr -e 210 -c 0 -i 15 -a 0 -x {0.0 3.0 7 ------- null}
+ -t 0.53793 -s 4 -d 3 -p cbr -e 210 -c 0 -i 15 -a 0 -x {0.0 3.0 7 ------- null}
- -t 0.53793 -s 4 -d 3 -p cbr -e 210 -c 0 -i 15 -a 0 -x {0.0 3.0 7 ------- null}
h -t 0.53793 -s 4 -d 3 -p cbr -e 210 -c 0 -i 15 -a 0 -x {0.0 3.0 -1 ------- null}
r -t 0.53836 -s 4 -d 2 -p cbr -e 210 -c 0 -i 8 -a 0 -x {1.0 2.0 4 ------- null}
r -t 0.53836 -s 4 -d 3 -p cbr -e 210 -c 0 -i 9 -a 0 -x {0.0 3.0 4 ------- null}
+ -t 0.54125 -s 1 -d 4 -p cbr -e 210 -c 0 -i 22 -a 0 -x {1.0 2.0 11 ------- null}
- -t 0.54125 -s 1 -d 4 -p cbr -e 210 -c 0 -i 22 -a 0 -x {1.0 2.0 11 ------- null}
h -t 0.54125 -s 1 -d 4 -p cbr -e 210 -c 0 -i 22 -a 0 -x {1.0 2.0 -1 ------- null}
+ -t 0.54125 -s 0 -d 4 -p cbr -e 210 -c 0 -i 23 -a 0 -x {0.0 3.0 11 ------- null}
- -t 0.54125 -s 0 -d 4 -p cbr -e 210 -c 0 -i 23 -a 0 -x {0.0 3.0 11 ------- null}
h -t 0.54125 -s 0 -d 4 -p cbr -e 210 -c 0 -i 23 -a 0 -x {0.0 3.0 -1 ------- null}
r -t 0.54168 -s 1 -d 4 -p cbr -e 210 -c 0 -i 16 -a 0 -x {1.0 2.0 8 ------- null}
+ -t 0.54168 -s 4 -d 2 -p cbr -e 210 -c 0 -i 16 -a 0 -x {1.0 2.0 8 ------- null}
- -t 0.54168 -s 4 -d 2 -p cbr -e 210 -c 0 -i 16 -a 0 -x {1.0 2.0 8 ------- null}
h -t 0.54168 -s 4 -d 2 -p cbr -e 210 -c 0 -i 16 -a 0 -x {1.0 2.0 -1 ------- null}
r -t 0.54168 -s 0 -d 4 -p cbr -e 210 -c 0 -i 17 -a 0 -x {0.0 3.0 8 ------- null}
+ -t 0.54168 -s 4 -d 3 -p cbr -e 210 -c 0 -i 17 -a 0 -x {0.0 3.0 8 ------- null}
- -t 0.54168 -s 4 -d 3 -p cbr -e 210 -c 0 -i 17 -a 0 -x {0.0 3.0 8 ------- null}
h -t 0.54168 -s 4 -d 3 -p cbr -e 210 -c 0 -i 17 -a 0 -x {0.0 3.0 -1 ------- null}
r -t 0.54211 -s 4 -d 2 -p cbr -e 210 -c 0 -i 10 -a 0 -x {1.0 2.0 5 ------- null}
r -t 0.54211 -s 4 -d 3 -p cbr -e 210 -c 0 -i 11 -a 0 -x {0.0 3.0 5 ------- null}
+ -t 0.545 -s 1 -d 4 -p cbr -e 210 -c 0 -i 24 -a 0 -x {1.0 2.0 12 ------- null}
- -t 0.545 -s 1 -d 4 -p cbr -e 210 -c 0 -i 24 -a 0 -x {1.0 2.0 12 ------- null}
h -t 0.545 -s 1 -d 4 -p cbr -e 210 -c 0 -i 24 -a 0 -x {1.0 2.0 -1 ------- null}
+ -t 0.545 -s 0 -d 4 -p cbr -e 210 -c 0 -i 25 -a 0 -x {0.0 3.0 12 ------- null}
- -t 0.545 -s 0 -d 4 -p cbr -e 210 -c 0 -i 25 -a 0 -x {0.0 3.0 12 ------- null}
h -t 0.545 -s 0 -d 4 -p cbr -e 210 -c 0 -i 25 -a 0 -x {0.0 3.0 -1 ------- null}
r -t 0.54543 -s 1 -d 4 -p cbr -e 210 -c 0 -i 18 -a 0 -x {1.0 2.0 9 ------- null}
+ -t 0.54543 -s 4 -d 2 -p cbr -e 210 -c 0 -i 18 -a 0 -x {1.0 2.0 9 ------- null}
- -t 0.54543 -s 4 -d 2 -p cbr -e 210 -c 0 -i 18 -a 0 -x {1.0 2.0 9 ------- null}
h -t 0.54543 -s 4 -d 2 -p cbr -e 210 -c 0 -i 18 -a 0 -x {1.0 2.0 -1 ------- null}
r -t 0.54543 -s 0 -d 4 -p cbr -e 210 -c 0 -i 19 -a 0 -x {0.0 3.0 9 ------- null}
+ -t 0.54543 -s 4 -d 3 -p cbr -e 210 -c 0 -i 19 -a 0 -x {0.0 3.0 9 ------- null}
- -t 0.54543 -s 4 -d 3 -p cbr -e 210 -c 0 -i 19 -a 0 -x {0.0 3.0 9 ------- null}
h -t 0.54543 -s 4 -d 3 -p cbr -e 210 -c 0 -i 19 -a 0 -x {0.0 3.0 -1 ------- null}
r -t 0.54586 -s 4 -d 2 -p cbr -e 210 -c 0 -i 12 -a 0 -x {1.0 2.0 6 ------- null}
r -t 0.54586 -s 4 -d 3 -p cbr -e 210 -c 0 -i 13 -a 0 -x {0.0 3.0 6 ------- null}
+ -t 0.54875 -s 1 -d 4 -p cbr -e 210 -c 0 -i 26 -a 0 -x {1.0 2.0 13 ------- null}
- -t 0.54875 -s 1 -d 4 -p cbr -e 210 -c 0 -i 26 -a 0 -x {1.0 2.0 13 ------- null}
h -t 0.54875 -s 1 -d 4 -p cbr -e 210 -c 0 -i 26 -a 0 -x {1.0 2.0 -1 ------- null}
+ -t 0.54875 -s 0 -d 4 -p cbr -e 210 -c 0 -i 27 -a 0 -x {0.0 3.0 13 ------- null}
- -t 0.54875 -s 0 -d 4 -p cbr -e 210 -c 0 -i 27 -a 0 -x {0.0 3.0 13 ------- null}
h -t 0.54875 -s 0 -d 4 -p cbr -e 210 -c 0 -i 27 -a 0 -x {0.0 3.0 -1 ------- null}
r -t 0.54918 -s 1 -d 4 -p cbr -e 210 -c 0 -i 20 -a 0 -x {1.0 2.0 10 ------- null}
+ -t 0.54918 -s 4 -d 2 -p cbr -e 210 -c 0 -i 20 -a 0 -x {1.0 2.0 10 ------- null}
- -t 0.54918 -s 4 -d 2 -p cbr -e 210 -c 0 -i 20 -a 0 -x {1.0 2.0 10 ------- null}
h -t 0.54918 -s 4 -d 2 -p cbr -e 210 -c 0 -i 20 -a 0 -x {1.0 2.0 -1 ------- null}
r -t 0.54918 -s 0 -d 4 -p cbr -e 210 -c 0 -i 21 -a 0 -x {0.0 3.0 10 ------- null}
+ -t 0.54918 -s 4 -d 3 -p cbr -e 210 -c 0 -i 21 -a 0 -x {0.0 3.0 10 ------- null}
- -t 0.54918 -s 4 -d 3 -p cbr -e 210 -c 0 -i 21 -a 0 -x {0.0 3.0 10 ------- null}
h -t 0.54918 -s 4 -d 3 -p cbr -e 210 -c 0 -i 21 -a 0 -x {0.0 3.0 -1 ------- null}
r -t 0.54961 -s 4 -d 2 -p cbr -e 210 -c 0 -i 14 -a 0 -x {1.0 2.0 7 ------- null}
r -t 0.54961 -s 4 -d 3 -p cbr -e 210 -c 0 -i 15 -a 0 -x {0.0 3.0 7 ------- null}
+ -t 0.5525 -s 1 -d 4 -p cbr -e 210 -c 0 -i 28 -a 0 -x {1.0 2.0 14 ------- null}
- -t 0.5525 -s 1 -d 4 -p cbr -e 210 -c 0 -i 28 -a 0 -x {1.0 2.0 14 ------- null}
h -t 0.5525 -s 1 -d 4 -p cbr -e 210 -c 0 -i 28 -a 0 -x {1.0 2.0 -1 ------- null}
+ -t 0.5525 -s 0 -d 4 -p cbr -e 210 -c 0 -i 29 -a 0 -x {0.0 3.0 14 ------- null}
- -t 0.5525 -s 0 -d 4 -p cbr -e 210 -c 0 -i 29 -a 0 -x {0.0 3.0 14 ------- null}
h -t 0.5525 -s 0 -d 4 -p cbr -e 210 -c 0 -i 29 -a 0 -x {0.0 3.0 -1 ------- null}
r -t 0.55293 -s 1 -d 4 -p cbr -e 210 -c 0 -i 22 -a 0 -x {1.0 2.0 11 ------- null}
+ -t 0.55293 -s 4 -d 2 -p cbr -e 210 -c 0 -i 22 -a 0 -x {1.0 2.0 11 ------- null}
- -t 0.55293 -s 4 -d 2 -p cbr -e 210 -c 0 -i 22 -a 0 -x {1.0 2.0 11 ------- null}
h -t 0.55293 -s 4 -d 2 -p cbr -e 210 -c 0 -i 22 -a 0 -x {1.0 2.0 -1 ------- null}
r -t 0.55293 -s 0 -d 4 -p cbr -e 210 -c 0 -i 23 -a 0 -x {0.0 3.0 11 ------- null}
+ -t 0.55293 -s 4 -d 3 -p cbr -e 210 -c 0 -i 23 -a 0 -x {0.0 3.0 11 ------- null}
- -t 0.55293 -s 4 -d 3 -p cbr -e 210 -c 0 -i 23 -a 0 -x {0.0 3.0 11 ------- null}
h -t 0.55293 -s 4 -d 3 -p cbr -e 210 -c 0 -i 23 -a 0 -x {0.0 3.0 -1 ------- null}
r -t 0.55336 -s 4 -d 2 -p cbr -e 210 -c 0 -i 16 -a 0 -x {1.0 2.0 8 ------- null}
r -t 0.55336 -s 4 -d 3 -p cbr -e 210 -c 0 -i 17 -a 0 -x {0.0 3.0 8 ------- null}
+ -t 0.55625 -s 1 -d 4 -p cbr -e 210 -c 0 -i 30 -a 0 -x {1.0 2.0 15 ------- null}
- -t 0.55625 -s 1 -d 4 -p cbr -e 210 -c 0 -i 30 -a 0 -x {1.0 2.0 15 ------- null}
h -t 0.55625 -s 1 -d 4 -p cbr -e 210 -c 0 -i 30 -a 0 -x {1.0 2.0 -1 ------- null}
+ -t 0.55625 -s 0 -d 4 -p cbr -e 210 -c 0 -i 31 -a 0 -x {0.0 3.0 15 ------- null}
- -t 0.55625 -s 0 -d 4 -p cbr -e 210 -c 0 -i 31 -a 0 -x {0.0 3.0 15 ------- null}
h -t 0.55625 -s 0 -d 4 -p cbr -e 210 -c 0 -i 31 -a 0 -x {0.0 3.0 -1 ------- null}
r -t 0.55668 -s 1 -d 4 -p cbr -e 210 -c 0 -i 24 -a 0 -x {1.0 2.0 12 ------- null}
+ -t 0.55668 -s 4 -d 2 -p cbr -e 210 -c 0 -i 24 -a 0 -x {1.0 2.0 12 ------- null}
- -t 0.55668 -s 4 -d 2 -p cbr -e 210 -c 0 -i 24 -a 0 -x {1.0 2.0 12 ------- null}
h -t 0.55668 -s 4 -d 2 -p cbr -e 210 -c 0 -i 24 -a 0 -x {1.0 2.0 -1 ------- null}
r -t 0.55668 -s 0 -d 4 -p cbr -e 210 -c 0 -i 25 -a 0 -x {0.0 3.0 12 ------- null}
+ -t 0.55668 -s 4 -d 3 -p cbr -e 210 -c 0 -i 25 -a 0 -x {0.0 3.0 12 ------- null}
- -t 0.55668 -s 4 -d 3 -p cbr -e 210 -c 0 -i 25 -a 0 -x {0.0 3.0 12 ------- null}
h -t 0.55668 -s 4 -d 3 -p cbr -e 210 -c 0 -i 25 -a 0 -x {0.0 3.0 -1 ------- null}
r -t 0.55711 -s 4 -d 2 -p cbr -e 210 -c 0 -i 18 -a 0 -x {1.0 2.0 9 ------- null}
r -t 0.55711 -s 4 -d 3 -p cbr -e 210 -c 0 -i 19 -a 0 -x {0.0 3.0 9 ------- null}
+ -t 0.56 -s 1 -d 4 -p cbr -e 210 -c 0 -i 32 -a 0 -x {1.0 2.0 16 ------- null}
- -t 0.56 -s 1 -d 4 -p cbr -e 210 -c 0 -i 32 -a 0 -x {1.0 2.0 16 ------- null}
h -t 0.56 -s 1 -d 4 -p cbr -e 210 -c 0 -i 32 -a 0 -x {1.0 2.0 -1 ------- null}
+ -t 0.56 -s 0 -d 4 -p cbr -e 210 -c 0 -i 33 -a 0 -x {0.0 3.0 16 ------- null}
- -t 0.56 -s 0 -d 4 -p cbr -e 210 -c 0 -i 33 -a 0 -x {0.0 3.0 16 ------- null}
h -t 0.56 -s 0 -d 4 -p cbr -e 210 -c 0 -i 33 -a 0 -x {0.0 3.0 -1 ------- null}
r -t 0.56043 -s 1 -d 4 -p cbr -e 210 -c 0 -i 26 -a 0 -x {1.0 2.0 13 ------- null}
+ -t 0.56043 -s 4 -d 2 -p cbr -e 210 -c 0 -i 26 -a 0 -x {1.0 2.0 13 ------- null}
- -t 0.56043 -s 4 -d 2 -p cbr -e 210 -c 0 -i 26 -a 0 -x {1.0 2.0 13 ------- null}
h -t 0.56043 -s 4 -d 2 -p cbr -e 210 -c 0 -i 26 -a 0 -x {1.0 2.0 -1 ------- null}
r -t 0.56043 -s 0 -d 4 -p cbr -e 210 -c 0 -i 27 -a 0 -x {0.0 3.0 13 ------- null}
+ -t 0.56043 -s 4 -d 3 -p cbr -e 210 -c 0 -i 27 -a 0 -x {0.0 3.0 13 ------- null}
- -t 0.56043 -s 4 -d 3 -p cbr -e 210 -c 0 -i 27 -a 0 -x {0.0 3.0 13 ------- null}
h -t 0.56043 -s 4 -d 3 -p cbr -e 210 -c 0 -i 27 -a 0 -x {0.0 3.0 -1 ------- null}
r -t 0.56086 -s 4 -d 2 -p cbr -e 210 -c 0 -i 20 -a 0 -x {1.0 2.0 10 ------- null}
r -t 0.56086 -s 4 -d 3 -p cbr -e 210 -c 0 -i 21 -a 0 -x {0.0 3.0 10 ------- null}
+ -t 0.563750000000001 -s 1 -d 4 -p cbr -e 210 -c 0 -i 34 -a 0 -x {1.0 2.0 17 ------- null}
- -t 0.563750000000001 -s 1 -d 4 -p cbr -e 210 -c 0 -i 34 -a 0 -x {1.0 2.0 17 ------- null}
h -t 0.563750000000001 -s 1 -d 4 -p cbr -e 210 -c 0 -i 34 -a 0 -x {1.0 2.0 -1 ------- null}
+ -t 0.563750000000001 -s 0 -d 4 -p cbr -e 210 -c 0 -i 35 -a 0 -x {0.0 3.0 17 ------- null}
- -t 0.563750000000001 -s 0 -d 4 -p cbr -e 210 -c 0 -i 35 -a 0 -x {0.0 3.0 17 ------- null}
h -t 0.563750000000001 -s 0 -d 4 -p cbr -e 210 -c 0 -i 35 -a 0 -x {0.0 3.0 -1 ------- null}
r -t 0.56418 -s 1 -d 4 -p cbr -e 210 -c 0 -i 28 -a 0 -x {1.0 2.0 14 ------- null}
+ -t 0.56418 -s 4 -d 2 -p cbr -e 210 -c 0 -i 28 -a 0 -x {1.0 2.0 14 ------- null}
- -t 0.56418 -s 4 -d 2 -p cbr -e 210 -c 0 -i 28 -a 0 -x {1.0 2.0 14 ------- null}
h -t 0.56418 -s 4 -d 2 -p cbr -e 210 -c 0 -i 28 -a 0 -x {1.0 2.0 -1 ------- null}
r -t 0.56418 -s 0 -d 4 -p cbr -e 210 -c 0 -i 29 -a 0 -x {0.0 3.0 14 ------- null}
+ -t 0.56418 -s 4 -d 3 -p cbr -e 210 -c 0 -i 29 -a 0 -x {0.0 3.0 14 ------- null}
- -t 0.56418 -s 4 -d 3 -p cbr -e 210 -c 0 -i 29 -a 0 -x {0.0 3.0 14 ------- null}
h -t 0.56418 -s 4 -d 3 -p cbr -e 210 -c 0 -i 29 -a 0 -x {0.0 3.0 -1 ------- null}
r -t 0.56461 -s 4 -d 2 -p cbr -e 210 -c 0 -i 22 -a 0 -x {1.0 2.0 11 ------- null}
r -t 0.56461 -s 4 -d 3 -p cbr -e 210 -c 0 -i 23 -a 0 -x {0.0 3.0 11 ------- null}
+ -t 0.567500000000001 -s 1 -d 4 -p cbr -e 210 -c 0 -i 36 -a 0 -x {1.0 2.0 18 ------- null}
- -t 0.567500000000001 -s 1 -d 4 -p cbr -e 210 -c 0 -i 36 -a 0 -x {1.0 2.0 18 ------- null}
h -t 0.567500000000001 -s 1 -d 4 -p cbr -e 210 -c 0 -i 36 -a 0 -x {1.0 2.0 -1 ------- null}
+ -t 0.567500000000001 -s 0 -d 4 -p cbr -e 210 -c 0 -i 37 -a 0 -x {0.0 3.0 18 ------- null}
- -t 0.567500000000001 -s 0 -d 4 -p cbr -e 210 -c 0 -i 37 -a 0 -x {0.0 3.0 18 ------- null}
h -t 0.567500000000001 -s 0 -d 4 -p cbr -e 210 -c 0 -i 37 -a 0 -x {0.0 3.0 -1 ------- null}
r -t 0.56793 -s 1 -d 4 -p cbr -e 210 -c 0 -i 30 -a 0 -x {1.0 2.0 15 ------- null}
+ -t 0.56793 -s 4 -d 2 -p cbr -e 210 -c 0 -i 30 -a 0 -x {1.0 2.0 15 ------- null}
- -t 0.56793 -s 4 -d 2 -p cbr -e 210 -c 0 -i 30 -a 0 -x {1.0 2.0 15 ------- null}
h -t 0.56793 -s 4 -d 2 -p cbr -e 210 -c 0 -i 30 -a 0 -x {1.0 2.0 -1 ------- null}
r -t 0.56793 -s 0 -d 4 -p cbr -e 210 -c 0 -i 31 -a 0 -x {0.0 3.0 15 ------- null}
+ -t 0.56793 -s 4 -d 3 -p cbr -e 210 -c 0 -i 31 -a 0 -x {0.0 3.0 15 ------- null}
- -t 0.56793 -s 4 -d 3 -p cbr -e 210 -c 0 -i 31 -a 0 -x {0.0 3.0 15 ------- null}
h -t 0.56793 -s 4 -d 3 -p cbr -e 210 -c 0 -i 31 -a 0 -x {0.0 3.0 -1 ------- null}
r -t 0.56836 -s 4 -d 2 -p cbr -e 210 -c 0 -i 24 -a 0 -x {1.0 2.0 12 ------- null}
r -t 0.56836 -s 4 -d 3 -p cbr -e 210 -c 0 -i 25 -a 0 -x {0.0 3.0 12 ------- null}
+ -t 0.571250000000001 -s 1 -d 4 -p cbr -e 210 -c 0 -i 38 -a 0 -x {1.0 2.0 19 ------- null}
- -t 0.571250000000001 -s 1 -d 4 -p cbr -e 210 -c 0 -i 38 -a 0 -x {1.0 2.0 19 ------- null}
h -t 0.571250000000001 -s 1 -d 4 -p cbr -e 210 -c 0 -i 38 -a 0 -x {1.0 2.0 -1 ------- null}
+ -t 0.571250000000001 -s 0 -d 4 -p cbr -e 210 -c 0 -i 39 -a 0 -x {0.0 3.0 19 ------- null}
- -t 0.571250000000001 -s 0 -d 4 -p cbr -e 210 -c 0 -i 39 -a 0 -x {0.0 3.0 19 ------- null}
h -t 0.571250000000001 -s 0 -d 4 -p cbr -e 210 -c 0 -i 39 -a 0 -x {0.0 3.0 -1 ------- null}
r -t 0.571680000000001 -s 1 -d 4 -p cbr -e 210 -c 0 -i 32 -a 0 -x {1.0 2.0 16 ------- null}
+ -t 0.571680000000001 -s 4 -d 2 -p cbr -e 210 -c 0 -i 32 -a 0 -x {1.0 2.0 16 ------- null}
- -t 0.571680000000001 -s 4 -d 2 -p cbr -e 210 -c 0 -i 32 -a 0 -x {1.0 2.0 16 ------- null}
h -t 0.571680000000001 -s 4 -d 2 -p cbr -e 210 -c 0 -i 32 -a 0 -x {1.0 2.0 -1 ------- null}
r -t 0.571680000000001 -s 0 -d 4 -p cbr -e 210 -c 0 -i 33 -a 0 -x {0.0 3.0 16 ------- null}
+ -t 0.571680000000001 -s 4 -d 3 -p cbr -e 210 -c 0 -i 33 -a 0 -x {0.0 3.0 16 ------- null}
- -t 0.571680000000001 -s 4 -d 3 -p cbr -e 210 -c 0 -i 33 -a 0 -x {0.0 3.0 16 ------- null}
h -t 0.571680000000001 -s 4 -d 3 -p cbr -e 210 -c 0 -i 33 -a 0 -x {0.0 3.0 -1 ------- null}
r -t 0.57211 -s 4 -d 2 -p cbr -e 210 -c 0 -i 26 -a 0 -x {1.0 2.0 13 ------- null}
r -t 0.57211 -s 4 -d 3 -p cbr -e 210 -c 0 -i 27 -a 0 -x {0.0 3.0 13 ------- null}
+ -t 0.575000000000001 -s 1 -d 4 -p cbr -e 210 -c 0 -i 40 -a 0 -x {1.0 2.0 20 ------- null}
- -t 0.575000000000001 -s 1 -d 4 -p cbr -e 210 -c 0 -i 40 -a 0 -x {1.0 2.0 20 ------- null}
h -t 0.575000000000001 -s 1 -d 4 -p cbr -e 210 -c 0 -i 40 -a 0 -x {1.0 2.0 -1 ------- null}
+ -t 0.575000000000001 -s 0 -d 4 -p cbr -e 210 -c 0 -i 41 -a 0 -x {0.0 3.0 20 ------- null}
- -t 0.575000000000001 -s 0 -d 4 -p cbr -e 210 -c 0 -i 41 -a 0 -x {0.0 3.0 20 ------- null}
h -t 0.575000000000001 -s 0 -d 4 -p cbr -e 210 -c 0 -i 41 -a 0 -x {0.0 3.0 -1 ------- null}
r -t 0.575430000000001 -s 1 -d 4 -p cbr -e 210 -c 0 -i 34 -a 0 -x {1.0 2.0 17 ------- null}
+ -t 0.575430000000001 -s 4 -d 2 -p cbr -e 210 -c 0 -i 34 -a 0 -x {1.0 2.0 17 ------- null}
- -t 0.575430000000001 -s 4 -d 2 -p cbr -e 210 -c 0 -i 34 -a 0 -x {1.0 2.0 17 ------- null}
h -t 0.575430000000001 -s 4 -d 2 -p cbr -e 210 -c 0 -i 34 -a 0 -x {1.0 2.0 -1 ------- null}
r -t 0.575430000000001 -s 0 -d 4 -p cbr -e 210 -c 0 -i 35 -a 0 -x {0.0 3.0 17 ------- null}
+ -t 0.575430000000001 -s 4 -d 3 -p cbr -e 210 -c 0 -i 35 -a 0 -x {0.0 3.0 17 ------- null}
- -t 0.575430000000001 -s 4 -d 3 -p cbr -e 210 -c 0 -i 35 -a 0 -x {0.0 3.0 17 ------- null}
h -t 0.575430000000001 -s 4 -d 3 -p cbr -e 210 -c 0 -i 35 -a 0 -x {0.0 3.0 -1 ------- null}
r -t 0.57586 -s 4 -d 2 -p cbr -e 210 -c 0 -i 28 -a 0 -x {1.0 2.0 14 ------- null}
r -t 0.57586 -s 4 -d 3 -p cbr -e 210 -c 0 -i 29 -a 0 -x {0.0 3.0 14 ------- null}
+ -t 0.578750000000001 -s 1 -d 4 -p cbr -e 210 -c 0 -i 42 -a 0 -x {1.0 2.0 21 ------- null}
- -t 0.578750000000001 -s 1 -d 4 -p cbr -e 210 -c 0 -i 42 -a 0 -x {1.0 2.0 21 ------- null}
h -t 0.578750000000001 -s 1 -d 4 -p cbr -e 210 -c 0 -i 42 -a 0 -x {1.0 2.0 -1 ------- null}
+ -t 0.578750000000001 -s 0 -d 4 -p cbr -e 210 -c 0 -i 43 -a 0 -x {0.0 3.0 21 ------- null}
- -t 0.578750000000001 -s 0 -d 4 -p cbr -e 210 -c 0 -i 43 -a 0 -x {0.0 3.0 21 ------- null}
h -t 0.578750000000001 -s 0 -d 4 -p cbr -e 210 -c 0 -i 43 -a 0 -x {0.0 3.0 -1 ------- null}
r -t 0.579180000000001 -s 1 -d 4 -p cbr -e 210 -c 0 -i 36 -a 0 -x {1.0 2.0 18 ------- null}
+ -t 0.579180000000001 -s 4 -d 2 -p cbr -e 210 -c 0 -i 36 -a 0 -x {1.0 2.0 18 ------- null}
- -t 0.579180000000001 -s 4 -d 2 -p cbr -e 210 -c 0 -i 36 -a 0 -x {1.0 2.0 18 ------- null}
h -t 0.579180000000001 -s 4 -d 2 -p cbr -e 210 -c 0 -i 36 -a 0 -x {1.0 2.0 -1 ------- null}
r -t 0.579180000000001 -s 0 -d 4 -p cbr -e 210 -c 0 -i 37 -a 0 -x {0.0 3.0 18 ------- null}
+ -t 0.579180000000001 -s 4 -d 3 -p cbr -e 210 -c 0 -i 37 -a 0 -x {0.0 3.0 18 ------- null}
- -t 0.579180000000001 -s 4 -d 3 -p cbr -e 210 -c 0 -i 37 -a 0 -x {0.0 3.0 18 ------- null}
h -t 0.579180000000001 -s 4 -d 3 -p cbr -e 210 -c 0 -i 37 -a 0 -x {0.0 3.0 -1 ------- null}
r -t 0.579610000000001 -s 4 -d 2 -p cbr -e 210 -c 0 -i 30 -a 0 -x {1.0 2.0 15 ------- null}
r -t 0.579610000000001 -s 4 -d 3 -p cbr -e 210 -c 0 -i 31 -a 0 -x {0.0 3.0 15 ------- null}
+ -t 0.582500000000001 -s 1 -d 4 -p cbr -e 210 -c 0 -i 44 -a 0 -x {1.0 2.0 22 ------- null}
- -t 0.582500000000001 -s 1 -d 4 -p cbr -e 210 -c 0 -i 44 -a 0 -x {1.0 2.0 22 ------- null}
h -t 0.582500000000001 -s 1 -d 4 -p cbr -e 210 -c 0 -i 44 -a 0 -x {1.0 2.0 -1 ------- null}
+ -t 0.582500000000001 -s 0 -d 4 -p cbr -e 210 -c 0 -i 45 -a 0 -x {0.0 3.0 22 ------- null}
- -t 0.582500000000001 -s 0 -d 4 -p cbr -e 210 -c 0 -i 45 -a 0 -x {0.0 3.0 22 ------- null}
h -t 0.582500000000001 -s 0 -d 4 -p cbr -e 210 -c 0 -i 45 -a 0 -x {0.0 3.0 -1 ------- null}
r -t 0.582930000000001 -s 1 -d 4 -p cbr -e 210 -c 0 -i 38 -a 0 -x {1.0 2.0 19 ------- null}
+ -t 0.582930000000001 -s 4 -d 2 -p cbr -e 210 -c 0 -i 38 -a 0 -x {1.0 2.0 19 ------- null}
- -t 0.582930000000001 -s 4 -d 2 -p cbr -e 210 -c 0 -i 38 -a 0 -x {1.0 2.0 19 ------- null}
h -t 0.582930000000001 -s 4 -d 2 -p cbr -e 210 -c 0 -i 38 -a 0 -x {1.0 2.0 -1 ------- null}
r -t 0.582930000000001 -s 0 -d 4 -p cbr -e 210 -c 0 -i 39 -a 0 -x {0.0 3.0 19 ------- null}
+ -t 0.582930000000001 -s 4 -d 3 -p cbr -e 210 -c 0 -i 39 -a 0 -x {0.0 3.0 19 ------- null}
- -t 0.582930000000001 -s 4 -d 3 -p cbr -e 210 -c 0 -i 39 -a 0 -x {0.0 3.0 19 ------- null}
h -t 0.582930000000001 -s 4 -d 3 -p cbr -e 210 -c 0 -i 39 -a 0 -x {0.0 3.0 -1 ------- null}
r -t 0.583360000000001 -s 4 -d 2 -p cbr -e 210 -c 0 -i 32 -a 0 -x {1.0 2.0 16 ------- null}
r -t 0.583360000000001 -s 4 -d 3 -p cbr -e 210 -c 0 -i 33 -a 0 -x {0.0 3.0 16 ------- null}
+ -t 0.586250000000001 -s 1 -d 4 -p cbr -e 210 -c 0 -i 46 -a 0 -x {1.0 2.0 23 ------- null}
- -t 0.586250000000001 -s 1 -d 4 -p cbr -e 210 -c 0 -i 46 -a 0 -x {1.0 2.0 23 ------- null}
h -t 0.586250000000001 -s 1 -d 4 -p cbr -e 210 -c 0 -i 46 -a 0 -x {1.0 2.0 -1 ------- null}
+ -t 0.586250000000001 -s 0 -d 4 -p cbr -e 210 -c 0 -i 47 -a 0 -x {0.0 3.0 23 ------- null}
- -t 0.586250000000001 -s 0 -d 4 -p cbr -e 210 -c 0 -i 47 -a 0 -x {0.0 3.0 23 ------- null}
h -t 0.586250000000001 -s 0 -d 4 -p cbr -e 210 -c 0 -i 47 -a 0 -x {0.0 3.0 -1 ------- null}
r -t 0.586680000000001 -s 1 -d 4 -p cbr -e 210 -c 0 -i 40 -a 0 -x {1.0 2.0 20 ------- null}
+ -t 0.586680000000001 -s 4 -d 2 -p cbr -e 210 -c 0 -i 40 -a 0 -x {1.0 2.0 20 ------- null}
- -t 0.586680000000001 -s 4 -d 2 -p cbr -e 210 -c 0 -i 40 -a 0 -x {1.0 2.0 20 ------- null}
h -t 0.586680000000001 -s 4 -d 2 -p cbr -e 210 -c 0 -i 40 -a 0 -x {1.0 2.0 -1 ------- null}
r -t 0.586680000000001 -s 0 -d 4 -p cbr -e 210 -c 0 -i 41 -a 0 -x {0.0 3.0 20 ------- null}
+ -t 0.586680000000001 -s 4 -d 3 -p cbr -e 210 -c 0 -i 41 -a 0 -x {0.0 3.0 20 ------- null}
- -t 0.586680000000001 -s 4 -d 3 -p cbr -e 210 -c 0 -i 41 -a 0 -x {0.0 3.0 20 ------- null}
h -t 0.586680000000001 -s 4 -d 3 -p cbr -e 210 -c 0 -i 41 -a 0 -x {0.0 3.0 -1 ------- null}
r -t 0.587110000000001 -s 4 -d 2 -p cbr -e 210 -c 0 -i 34 -a 0 -x {1.0 2.0 17 ------- null}
r -t 0.587110000000001 -s 4 -d 3 -p cbr -e 210 -c 0 -i 35 -a 0 -x {0.0 3.0 17 ------- null}
+ -t 0.590000000000001 -s 1 -d 4 -p cbr -e 210 -c 0 -i 48 -a 0 -x {1.0 2.0 24 ------- null}
- -t 0.590000000000001 -s 1 -d 4 -p cbr -e 210 -c 0 -i 48 -a 0 -x {1.0 2.0 24 ------- null}
h -t 0.590000000000001 -s 1 -d 4 -p cbr -e 210 -c 0 -i 48 -a 0 -x {1.0 2.0 -1 ------- null}