V -t * -v 1.0a5 -a 0
A -t * -n 1 -p 0 -o 0x7fffffff -c 30 -a 1
A -t * -h 1 -m 1073741823 -s 0
c -t * -i 0 -n Green
c -t * -i 1 -n Blue
n -t * -a 0 -s 0 -S UP -v circle -c red -i red
n -t * -a 1 -s 1 -S UP -v circle -c red -i red
n -t * -a 2 -s 2 -S UP -v circle -c red -i red
n -t * -a 3 -s 3 -S UP -v circle -c red -i red
n -t * -a 4 -s 4 -S UP -v circle -c red -i red
n -t * -a 5 -s 5 -S UP -v circle -c red -i red
n -t * -a 6 -s 6 -S UP -v circle -c red -i red
n -t * -a 7 -s 7 -S UP -v circle -c green -i green
n -t * -a 8 -s 8 -S UP -v circle -c green -i green
n -t * -a 9 -s 9 -S UP -v circle -c green -i green
n -t * -a 10 -s 10 -S UP -v circle -c green -i green
n -t * -a 11 -s 11 -S UP -v circle -c green -i green
l -t * -s 2 -d 0 -S UP -r 10000000 -D 0.02 -c black -o left
l -t * -s 3 -d 0 -S UP -r 10000000 -D 0.02 -c black -o left
l -t * -s 4 -d 0 -S UP -r 10000000 -D 0.02 -c black -o left
l -t * -s 5 -d 0 -S UP -r 10000000 -D 0.02 -c black -o left
l -t * -s 6 -d 0 -S UP -r 10000000 -D 0.02 -c black -o left
l -t * -s 7 -d 1 -S UP -r 10000000 -D 0.02 -c black -o right
l -t * -s 8 -d 1 -S UP -r 10000000 -D 0.02 -c black -o right
l -t * -s 9 -d 1 -S UP -r 10000000 -D 0.02 -c black -o right
l -t * -s 10 -d 1 -S UP -r 10000000 -D 0.02 -c black -o right
l -t * -s 11 -d 1 -S UP -r 10000000 -D 0.02 -c black -o right
l -t * -s 0 -d 1 -S UP -r 1500000 -D 0.040000000000000001 -c black -o down
+ -t 0.5 -s 8 -d 1 -p tcp -e 40 -c 0 -i 0 -a 0 -x {8.0 2.0 0 ------- null}
- -t 0.5 -s 8 -d 1 -p tcp -e 40 -c 0 -i 0 -a 0 -x {8.0 2.0 0 ------- null}
h -t 0.5 -s 8 -d 1 -p tcp -e 40 -c 0 -i 0 -a 0 -x {8.0 2.0 -1 ------- null}
+ -t 0.5 -s 8 -d 1 -p tcp -e 40 -c 1 -i 1 -a 1 -x {8.1 3.0 0 ------- null}
+ -t 0.5 -s 8 -d 1 -p tcp -e 40 -c 0 -i 2 -a 0 -x {8.2 4.0 0 ------- null}
+ -t 0.5 -s 8 -d 1 -p tcp -e 40 -c 0 -i 3 -a 0 -x {8.3 5.0 0 ------- null}
+ -t 0.5 -s 8 -d 1 -p tcp -e 40 -c 0 -i 4 -a 0 -x {8.4 6.0 0 ------- null}
- -t 0.500032 -s 8 -d 1 -p tcp -e 40 -c 1 -i 1 -a 1 -x {8.1 3.0 0 ------- null}
h -t 0.500032 -s 8 -d 1 -p tcp -e 40 -c 1 -i 1 -a 1 -x {8.1 3.0 -1 ------- null}
- -t 0.500064 -s 8 -d 1 -p tcp -e 40 -c 0 -i 2 -a 0 -x {8.2 4.0 0 ------- null}
h -t 0.500064 -s 8 -d 1 -p tcp -e 40 -c 0 -i 2 -a 0 -x {8.2 4.0 -1 ------- null}
- -t 0.500096 -s 8 -d 1 -p tcp -e 40 -c 0 -i 3 -a 0 -x {8.3 5.0 0 ------- null}
h -t 0.500096 -s 8 -d 1 -p tcp -e 40 -c 0 -i 3 -a 0 -x {8.3 5.0 -1 ------- null}
- -t 0.500128 -s 8 -d 1 -p tcp -e 40 -c 0 -i 4 -a 0 -x {8.4 6.0 0 ------- null}
h -t 0.500128 -s 8 -d 1 -p tcp -e 40 -c 0 -i 4 -a 0 -x {8.4 6.0 -1 ------- null}
r -t 0.520032 -s 8 -d 1 -p tcp -e 40 -c 0 -i 0 -a 0 -x {8.0 2.0 0 ------- null}
+ -t 0.520032 -s 1 -d 0 -p tcp -e 40 -c 0 -i 0 -a 0 -x {8.0 2.0 0 ------- null}
- -t 0.520032 -s 1 -d 0 -p tcp -e 40 -c 0 -i 0 -a 0 -x {8.0 2.0 0 ------- null}
h -t 0.520032 -s 1 -d 0 -p tcp -e 40 -c 0 -i 0 -a 0 -x {8.0 2.0 -1 ------- null}
r -t 0.520064 -s 8 -d 1 -p tcp -e 40 -c 1 -i 1 -a 1 -x {8.1 3.0 0 ------- null}
+ -t 0.520064 -s 1 -d 0 -p tcp -e 40 -c 1 -i 1 -a 1 -x {8.1 3.0 0 ------- null}
r -t 0.520096 -s 8 -d 1 -p tcp -e 40 -c 0 -i 2 -a 0 -x {8.2 4.0 0 ------- null}
+ -t 0.520096 -s 1 -d 0 -p tcp -e 40 -c 0 -i 2 -a 0 -x {8.2 4.0 0 ------- null}
r -t 0.520128 -s 8 -d 1 -p tcp -e 40 -c 0 -i 3 -a 0 -x {8.3 5.0 0 ------- null}
+ -t 0.520128 -s 1 -d 0 -p tcp -e 40 -c 0 -i 3 -a 0 -x {8.3 5.0 0 ------- null}
r -t 0.52016 -s 8 -d 1 -p tcp -e 40 -c 0 -i 4 -a 0 -x {8.4 6.0 0 ------- null}
+ -t 0.52016 -s 1 -d 0 -p tcp -e 40 -c 0 -i 4 -a 0 -x {8.4 6.0 0 ------- null}
- -t 0.520245333333333 -s 1 -d 0 -p tcp -e 40 -c 1 -i 1 -a 1 -x {8.1 3.0 0 ------- null}
h -t 0.520245333333333 -s 1 -d 0 -p tcp -e 40 -c 1 -i 1 -a 1 -x {8.1 3.0 -1 ------- null}
- -t 0.520458666666667 -s 1 -d 0 -p tcp -e 40 -c 0 -i 2 -a 0 -x {8.2 4.0 0 ------- null}
h -t 0.520458666666667 -s 1 -d 0 -p tcp -e 40 -c 0 -i 2 -a 0 -x {8.2 4.0 -1 ------- null}
- -t 0.520672 -s 1 -d 0 -p tcp -e 40 -c 0 -i 3 -a 0 -x {8.3 5.0 0 ------- null}
h -t 0.520672 -s 1 -d 0 -p tcp -e 40 -c 0 -i 3 -a 0 -x {8.3 5.0 -1 ------- null}
- -t 0.520885333333333 -s 1 -d 0 -p tcp -e 40 -c 0 -i 4 -a 0 -x {8.4 6.0 0 ------- null}
h -t 0.520885333333333 -s 1 -d 0 -p tcp -e 40 -c 0 -i 4 -a 0 -x {8.4 6.0 -1 ------- null}
r -t 0.560245333333333 -s 1 -d 0 -p tcp -e 40 -c 0 -i 0 -a 0 -x {8.0 2.0 0 ------- null}
+ -t 0.560245333333333 -s 0 -d 2 -p tcp -e 40 -c 0 -i 0 -a 0 -x {8.0 2.0 0 ------- null}
- -t 0.560245333333333 -s 0 -d 2 -p tcp -e 40 -c 0 -i 0 -a 0 -x {8.0 2.0 0 ------- null}
h -t 0.560245333333333 -s 0 -d 2 -p tcp -e 40 -c 0 -i 0 -a 0 -x {8.0 2.0 -1 ------- null}
r -t 0.560458666666667 -s 1 -d 0 -p tcp -e 40 -c 1 -i 1 -a 1 -x {8.1 3.0 0 ------- null}
+ -t 0.560458666666667 -s 0 -d 3 -p tcp -e 40 -c 1 -i 1 -a 1 -x {8.1 3.0 0 ------- null}
- -t 0.560458666666667 -s 0 -d 3 -p tcp -e 40 -c 1 -i 1 -a 1 -x {8.1 3.0 0 ------- null}
h -t 0.560458666666667 -s 0 -d 3 -p tcp -e 40 -c 1 -i 1 -a 1 -x {8.1 3.0 -1 ------- null}
r -t 0.560672 -s 1 -d 0 -p tcp -e 40 -c 0 -i 2 -a 0 -x {8.2 4.0 0 ------- null}
+ -t 0.560672 -s 0 -d 4 -p tcp -e 40 -c 0 -i 2 -a 0 -x {8.2 4.0 0 ------- null}
- -t 0.560672 -s 0 -d 4 -p tcp -e 40 -c 0 -i 2 -a 0 -x {8.2 4.0 0 ------- null}
h -t 0.560672 -s 0 -d 4 -p tcp -e 40 -c 0 -i 2 -a 0 -x {8.2 4.0 -1 ------- null}
r -t 0.560885333333333 -s 1 -d 0 -p tcp -e 40 -c 0 -i 3 -a 0 -x {8.3 5.0 0 ------- null}
+ -t 0.560885333333333 -s 0 -d 5 -p tcp -e 40 -c 0 -i 3 -a 0 -x {8.3 5.0 0 ------- null}
- -t 0.560885333333333 -s 0 -d 5 -p tcp -e 40 -c 0 -i 3 -a 0 -x {8.3 5.0 0 ------- null}
h -t 0.560885333333333 -s 0 -d 5 -p tcp -e 40 -c 0 -i 3 -a 0 -x {8.3 5.0 -1 ------- null}
r -t 0.561098666666667 -s 1 -d 0 -p tcp -e 40 -c 0 -i 4 -a 0 -x {8.4 6.0 0 ------- null}
+ -t 0.561098666666667 -s 0 -d 6 -p tcp -e 40 -c 0 -i 4 -a 0 -x {8.4 6.0 0 ------- null}
- -t 0.561098666666667 -s 0 -d 6 -p tcp -e 40 -c 0 -i 4 -a 0 -x {8.4 6.0 0 ------- null}
h -t 0.561098666666667 -s 0 -d 6 -p tcp -e 40 -c 0 -i 4 -a 0 -x {8.4 6.0 -1 ------- null}
r -t 0.580277333333333 -s 0 -d 2 -p tcp -e 40 -c 0 -i 0 -a 0 -x {8.0 2.0 0 ------- null}
+ -t 0.580277333333333 -s 2 -d 0 -p ack -e 40 -c 0 -i 5 -a 0 -x {2.0 8.0 0 ------- null}
- -t 0.580277333333333 -s 2 -d 0 -p ack -e 40 -c 0 -i 5 -a 0 -x {2.0 8.0 0 ------- null}
h -t 0.580277333333333 -s 2 -d 0 -p ack -e 40 -c 0 -i 5 -a 0 -x {2.0 8.0 -1 ------- null}
r -t 0.580490666666667 -s 0 -d 3 -p tcp -e 40 -c 1 -i 1 -a 1 -x {8.1 3.0 0 ------- null}
+ -t 0.580490666666667 -s 3 -d 0 -p ack -e 40 -c 1 -i 6 -a 1 -x {3.0 8.1 0 ------- null}
- -t 0.580490666666667 -s 3 -d 0 -p ack -e 40 -c 1 -i 6 -a 1 -x {3.0 8.1 0 ------- null}
h -t 0.580490666666667 -s 3 -d 0 -p ack -e 40 -c 1 -i 6 -a 1 -x {3.0 8.1 -1 ------- null}
r -t 0.580704 -s 0 -d 4 -p tcp -e 40 -c 0 -i 2 -a 0 -x {8.2 4.0 0 ------- null}
+ -t 0.580704 -s 4 -d 0 -p ack -e 40 -c 0 -i 7 -a 0 -x {4.0 8.2 0 ------- null}
- -t 0.580704 -s 4 -d 0 -p ack -e 40 -c 0 -i 7 -a 0 -x {4.0 8.2 0 ------- null}
h -t 0.580704 -s 4 -d 0 -p ack -e 40 -c 0 -i 7 -a 0 -x {4.0 8.2 -1 ------- null}
r -t 0.580917333333333 -s 0 -d 5 -p tcp -e 40 -c 0 -i 3 -a 0 -x {8.3 5.0 0 ------- null}
+ -t 0.580917333333333 -s 5 -d 0 -p ack -e 40 -c 0 -i 8 -a 0 -x {5.0 8.3 0 ------- null}
- -t 0.580917333333333 -s 5 -d 0 -p ack -e 40 -c 0 -i 8 -a 0 -x {5.0 8.3 0 ------- null}
h -t 0.580917333333333 -s 5 -d 0 -p ack -e 40 -c 0 -i 8 -a 0 -x {5.0 8.3 -1 ------- null}
r -t 0.581130666666667 -s 0 -d 6 -p tcp -e 40 -c 0 -i 4 -a 0 -x {8.4 6.0 0 ------- null}
+ -t 0.581130666666667 -s 6 -d 0 -p ack -e 40 -c 0 -i 9 -a 0 -x {6.0 8.4 0 ------- null}
- -t 0.581130666666667 -s 6 -d 0 -p ack -e 40 -c 0 -i 9 -a 0 -x {6.0 8.4 0 ------- null}
h -t 0.581130666666667 -s 6 -d 0 -p ack -e 40 -c 0 -i 9 -a 0 -x {6.0 8.4 -1 ------- null}
r -t 0.600309333333333 -s 2 -d 0 -p ack -e 40 -c 0 -i 5 -a 0 -x {2.0 8.0 0 ------- null}
+ -t 0.600309333333333 -s 0 -d 1 -p ack -e 40 -c 0 -i 5 -a 0 -x {2.0 8.0 0 ------- null}
- -t 0.600309333333333 -s 0 -d 1 -p ack -e 40 -c 0 -i 5 -a 0 -x {2.0 8.0 0 ------- null}
h -t 0.600309333333333 -s 0 -d 1 -p ack -e 40 -c 0 -i 5 -a 0 -x {2.0 8.0 -1 ------- null}
r -t 0.600522666666667 -s 3 -d 0 -p ack -e 40 -c 1 -i 6 -a 1 -x {3.0 8.1 0 ------- null}
+ -t 0.600522666666667 -s 0 -d 1 -p ack -e 40 -c 1 -i 6 -a 1 -x {3.0 8.1 0 ------- null}
- -t 0.600522666666667 -s 0 -d 1 -p ack -e 40 -c 1 -i 6 -a 1 -x {3.0 8.1 0 ------- null}
h -t 0.600522666666667 -s 0 -d 1 -p ack -e 40 -c 1 -i 6 -a 1 -x {3.0 8.1 -1 ------- null}
r -t 0.600736 -s 4 -d 0 -p ack -e 40 -c 0 -i 7 -a 0 -x {4.0 8.2 0 ------- null}
+ -t 0.600736 -s 0 -d 1 -p ack -e 40 -c 0 -i 7 -a 0 -x {4.0 8.2 0 ------- null}
- -t 0.600736 -s 0 -d 1 -p ack -e 40 -c 0 -i 7 -a 0 -x {4.0 8.2 0 ------- null}
h -t 0.600736 -s 0 -d 1 -p ack -e 40 -c 0 -i 7 -a 0 -x {4.0 8.2 -1 ------- null}
r -t 0.600949333333333 -s 5 -d 0 -p ack -e 40 -c 0 -i 8 -a 0 -x {5.0 8.3 0 ------- null}
+ -t 0.600949333333333 -s 0 -d 1 -p ack -e 40 -c 0 -i 8 -a 0 -x {5.0 8.3 0 ------- null}
- -t 0.600949333333333 -s 0 -d 1 -p ack -e 40 -c 0 -i 8 -a 0 -x {5.0 8.3 0 ------- null}
h -t 0.600949333333333 -s 0 -d 1 -p ack -e 40 -c 0 -i 8 -a 0 -x {5.0 8.3 -1 ------- null}
r -t 0.601162666666667 -s 6 -d 0 -p ack -e 40 -c 0 -i 9 -a 0 -x {6.0 8.4 0 ------- null}
+ -t 0.601162666666667 -s 0 -d 1 -p ack -e 40 -c 0 -i 9 -a 0 -x {6.0 8.4 0 ------- null}
- -t 0.601162666666667 -s 0 -d 1 -p ack -e 40 -c 0 -i 9 -a 0 -x {6.0 8.4 0 ------- null}
h -t 0.601162666666667 -s 0 -d 1 -p ack -e 40 -c 0 -i 9 -a 0 -x {6.0 8.4 -1 ------- null}
r -t 0.640522666666667 -s 0 -d 1 -p ack -e 40 -c 0 -i 5 -a 0 -x {2.0 8.0 0 ------- null}
+ -t 0.640522666666667 -s 1 -d 8 -p ack -e 40 -c 0 -i 5 -a 0 -x {2.0 8.0 0 ------- null}
- -t 0.640522666666667 -s 1 -d 8 -p ack -e 40 -c 0 -i 5 -a 0 -x {2.0 8.0 0 ------- null}
h -t 0.640522666666667 -s 1 -d 8 -p ack -e 40 -c 0 -i 5 -a 0 -x {2.0 8.0 -1 ------- null}
r -t 0.640736 -s 0 -d 1 -p ack -e 40 -c 1 -i 6 -a 1 -x {3.0 8.1 0 ------- null}
+ -t 0.640736 -s 1 -d 8 -p ack -e 40 -c 1 -i 6 -a 1 -x {3.0 8.1 0 ------- null}
- -t 0.640736 -s 1 -d 8 -p ack -e 40 -c 1 -i 6 -a 1 -x {3.0 8.1 0 ------- null}
h -t 0.640736 -s 1 -d 8 -p ack -e 40 -c 1 -i 6 -a 1 -x {3.0 8.1 -1 ------- null}
r -t 0.640949333333333 -s 0 -d 1 -p ack -e 40 -c 0 -i 7 -a 0 -x {4.0 8.2 0 ------- null}
+ -t 0.640949333333333 -s 1 -d 8 -p ack -e 40 -c 0 -i 7 -a 0 -x {4.0 8.2 0 ------- null}
- -t 0.640949333333333 -s 1 -d 8 -p ack -e 40 -c 0 -i 7 -a 0 -x {4.0 8.2 0 ------- null}
h -t 0.640949333333333 -s 1 -d 8 -p ack -e 40 -c 0 -i 7 -a 0 -x {4.0 8.2 -1 ------- null}
r -t 0.641162666666667 -s 0 -d 1 -p ack -e 40 -c 0 -i 8 -a 0 -x {5.0 8.3 0 ------- null}
+ -t 0.641162666666667 -s 1 -d 8 -p ack -e 40 -c 0 -i 8 -a 0 -x {5.0 8.3 0 ------- null}
- -t 0.641162666666667 -s 1 -d 8 -p ack -e 40 -c 0 -i 8 -a 0 -x {5.0 8.3 0 ------- null}
h -t 0.641162666666667 -s 1 -d 8 -p ack -e 40 -c 0 -i 8 -a 0 -x {5.0 8.3 -1 ------- null}
r -t 0.641376 -s 0 -d 1 -p ack -e 40 -c 0 -i 9 -a 0 -x {6.0 8.4 0 ------- null}
+ -t 0.641376 -s 1 -d 8 -p ack -e 40 -c 0 -i 9 -a 0 -x {6.0 8.4 0 ------- null}
- -t 0.641376 -s 1 -d 8 -p ack -e 40 -c 0 -i 9 -a 0 -x {6.0 8.4 0 ------- null}
h -t 0.641376 -s 1 -d 8 -p ack -e 40 -c 0 -i 9 -a 0 -x {6.0 8.4 -1 ------- null}
r -t 0.660554666666667 -s 1 -d 8 -p ack -e 40 -c 0 -i 5 -a 0 -x {2.0 8.0 0 ------- null}
+ -t 0.660554666666667 -s 8 -d 1 -p tcp -e 1040 -c 0 -i 10 -a 0 -x {8.0 2.0 1 ------- null}
- -t 0.660554666666667 -s 8 -d 1 -p tcp -e 1040 -c 0 -i 10 -a 0 -x {8.0 2.0 1 ------- null}
h -t 0.660554666666667 -s 8 -d 1 -p tcp -e 1040 -c 0 -i 10 -a 0 -x {8.0 2.0 -1 ------- null}
+ -t 0.660554666666667 -s 8 -d 1 -p tcp -e 1040 -c 0 -i 11 -a 0 -x {8.0 2.0 2 ------- null}
r -t 0.660768 -s 1 -d 8 -p ack -e 40 -c 1 -i 6 -a 1 -x {3.0 8.1 0 ------- null}
+ -t 0.660768 -s 8 -d 1 -p tcp -e 1040 -c 1 -i 12 -a 1 -x {8.1 3.0 1 ------- null}
+ -t 0.660768 -s 8 -d 1 -p tcp -e 1040 -c 1 -i 13 -a 1 -x {8.1 3.0 2 ------- null}
r -t 0.660981333333333 -s 1 -d 8 -p ack -e 40 -c 0 -i 7 -a 0 -x {4.0 8.2 0 ------- null}
+ -t 0.660981333333333 -s 8 -d 1 -p tcp -e 1040 -c 0 -i 14 -a 0 -x {8.2 4.0 1 ------- null}
+ -t 0.660981333333333 -s 8 -d 1 -p tcp -e 1040 -c 0 -i 15 -a 0 -x {8.2 4.0 2 ------- null}
r -t 0.661194666666667 -s 1 -d 8 -p ack -e 40 -c 0 -i 8 -a 0 -x {5.0 8.3 0 ------- null}
+ -t 0.661194666666667 -s 8 -d 1 -p tcp -e 1040 -c 0 -i 16 -a 0 -x {8.3 5.0 1 ------- null}
+ -t 0.661194666666667 -s 8 -d 1 -p tcp -e 1040 -c 0 -i 17 -a 0 -x {8.3 5.0 2 ------- null}
- -t 0.661386666666667 -s 8 -d 1 -p tcp -e 1040 -c 0 -i 11 -a 0 -x {8.0 2.0 2 ------- null}
h -t 0.661386666666667 -s 8 -d 1 -p tcp -e 1040 -c 0 -i 11 -a 0 -x {8.0 2.0 -1 ------- null}
r -t 0.661408 -s 1 -d 8 -p ack -e 40 -c 0 -i 9 -a 0 -x {6.0 8.4 0 ------- null}
+ -t 0.661408 -s 8 -d 1 -p tcp -e 1040 -c 0 -i 18 -a 0 -x {8.4 6.0 1 ------- null}
+ -t 0.661408 -s 8 -d 1 -p tcp -e 1040 -c 0 -i 19 -a 0 -x {8.4 6.0 2 ------- null}
- -t 0.662218666666667 -s 8 -d 1 -p tcp -e 1040 -c 1 -i 12 -a 1 -x {8.1 3.0 1 ------- null}
h -t 0.662218666666667 -s 8 -d 1 -p tcp -e 1040 -c 1 -i 12 -a 1 -x {8.1 3.0 -1 ------- null}
- -t 0.663050666666667 -s 8 -d 1 -p tcp -e 1040 -c 1 -i 13 -a 1 -x {8.1 3.0 2 ------- null}
h -t 0.663050666666667 -s 8 -d 1 -p tcp -e 1040 -c 1 -i 13 -a 1 -x {8.1 3.0 -1 ------- null}
- -t 0.663882666666667 -s 8 -d 1 -p tcp -e 1040 -c 0 -i 14 -a 0 -x {8.2 4.0 1 ------- null}
h -t 0.663882666666667 -s 8 -d 1 -p tcp -e 1040 -c 0 -i 14 -a 0 -x {8.2 4.0 -1 ------- null}
- -t 0.664714666666667 -s 8 -d 1 -p tcp -e 1040 -c 0 -i 15 -a 0 -x {8.2 4.0 2 ------- null}
h -t 0.664714666666667 -s 8 -d 1 -p tcp -e 1040 -c 0 -i 15 -a 0 -x {8.2 4.0 -1 ------- null}
- -t 0.665546666666667 -s 8 -d 1 -p tcp -e 1040 -c 0 -i 16 -a 0 -x {8.3 5.0 1 ------- null}
h -t 0.665546666666667 -s 8 -d 1 -p tcp -e 1040 -c 0 -i 16 -a 0 -x {8.3 5.0 -1 ------- null}
- -t 0.666378666666667 -s 8 -d 1 -p tcp -e 1040 -c 0 -i 17 -a 0 -x {8.3 5.0 2 ------- null}
h -t 0.666378666666667 -s 8 -d 1 -p tcp -e 1040 -c 0 -i 17 -a 0 -x {8.3 5.0 -1 ------- null}
- -t 0.667210666666667 -s 8 -d 1 -p tcp -e 1040 -c 0 -i 18 -a 0 -x {8.4 6.0 1 ------- null}
h -t 0.667210666666667 -s 8 -d 1 -p tcp -e 1040 -c 0 -i 18 -a 0 -x {8.4 6.0 -1 ------- null}
- -t 0.668042666666667 -s 8 -d 1 -p tcp -e 1040 -c 0 -i 19 -a 0 -x {8.4 6.0 2 ------- null}
h -t 0.668042666666667 -s 8 -d 1 -p tcp -e 1040 -c 0 -i 19 -a 0 -x {8.4 6.0 -1 ------- null}
r -t 0.681386666666667 -s 8 -d 1 -p tcp -e 1040 -c 0 -i 10 -a 0 -x {8.0 2.0 1 ------- null}
+ -t 0.681386666666667 -s 1 -d 0 -p tcp -e 1040 -c 0 -i 10 -a 0 -x {8.0 2.0 1 ------- null}
- -t 0.681386666666667 -s 1 -d 0 -p tcp -e 1040 -c 0 -i 10 -a 0 -x {8.0 2.0 1 ------- null}
h -t 0.681386666666667 -s 1 -d 0 -p tcp -e 1040 -c 0 -i 10 -a 0 -x {8.0 2.0 -1 ------- null}
r -t 0.682218666666667 -s 8 -d 1 -p tcp -e 1040 -c 0 -i 11 -a 0 -x {8.0 2.0 2 ------- null}
+ -t 0.682218666666667 -s 1 -d 0 -p tcp -e 1040 -c 0 -i 11 -a 0 -x {8.0 2.0 2 ------- null}
r -t 0.683050666666667 -s 8 -d 1 -p tcp -e 1040 -c 1 -i 12 -a 1 -x {8.1 3.0 1 ------- null}
+ -t 0.683050666666667 -s 1 -d 0 -p tcp -e 1040 -c 1 -i 12 -a 1 -x {8.1 3.0 1 ------- null}
r -t 0.683882666666667 -s 8 -d 1 -p tcp -e 1040 -c 1 -i 13 -a 1 -x {8.1 3.0 2 ------- null}
+ -t 0.683882666666667 -s 1 -d 0 -p tcp -e 1040 -c 1 -i 13 -a 1 -x {8.1 3.0 2 ------- null}
r -t 0.684714666666667 -s 8 -d 1 -p tcp -e 1040 -c 0 -i 14 -a 0 -x {8.2 4.0 1 ------- null}
+ -t 0.684714666666667 -s 1 -d 0 -p tcp -e 1040 -c 0 -i 14 -a 0 -x {8.2 4.0 1 ------- null}
r -t 0.685546666666667 -s 8 -d 1 -p tcp -e 1040 -c 0 -i 15 -a 0 -x {8.2 4.0 2 ------- null}
+ -t 0.685546666666667 -s 1 -d 0 -p tcp -e 1040 -c 0 -i 15 -a 0 -x {8.2 4.0 2 ------- null}
r -t 0.686378666666667 -s 8 -d 1 -p tcp -e 1040 -c 0 -i 16 -a 0 -x {8.3 5.0 1 ------- null}
+ -t 0.686378666666667 -s 1 -d 0 -p tcp -e 1040 -c 0 -i 16 -a 0 -x {8.3 5.0 1 ------- null}
- -t 0.686933333333334 -s 1 -d 0 -p tcp -e 1040 -c 0 -i 11 -a 0 -x {8.0 2.0 2 ------- null}
h -t 0.686933333333334 -s 1 -d 0 -p tcp -e 1040 -c 0 -i 11 -a 0 -x {8.0 2.0 -1 ------- null}
r -t 0.687210666666667 -s 8 -d 1 -p tcp -e 1040 -c 0 -i 17 -a 0 -x {8.3 5.0 2 ------- null}
+ -t 0.687210666666667 -s 1 -d 0 -p tcp -e 1040 -c 0 -i 17 -a 0 -x {8.3 5.0 2 ------- null}
r -t 0.688042666666667 -s 8 -d 1 -p tcp -e 1040 -c 0 -i 18 -a 0 -x {8.4 6.0 1 ------- null}
+ -t 0.688042666666667 -s 1 -d 0 -p tcp -e 1040 -c 0 -i 18 -a 0 -x {8.4 6.0 1 ------- null}
r -t 0.688874666666667 -s 8 -d 1 -p tcp -e 1040 -c 0 -i 19 -a 0 -x {8.4 6.0 2 ------- null}
+ -t 0.688874666666667 -s 1 -d 0 -p tcp -e 1040 -c 0 -i 19 -a 0 -x {8.4 6.0 2 ------- null}
- -t 0.69248 -s 1 -d 0 -p tcp -e 1040 -c 1 -i 12 -a 1 -x {8.1 3.0 1 ------- null}
h -t 0.69248 -s 1 -d 0 -p tcp -e 1040 -c 1 -i 12 -a 1 -x {8.1 3.0 -1 ------- null}
- -t 0.698026666666667 -s 1 -d 0 -p tcp -e 1040 -c 1 -i 13 -a 1 -x {8.1 3.0 2 ------- null}
h -t 0.698026666666667 -s 1 -d 0 -p tcp -e 1040 -c 1 -i 13 -a 1 -x {8.1 3.0 -1 ------- null}
- -t 0.703573333333334 -s 1 -d 0 -p tcp -e 1040 -c 0 -i 14 -a 0 -x {8.2 4.0 1 ------- null}
h -t 0.703573333333334 -s 1 -d 0 -p tcp -e 1040 -c 0 -i 14 -a 0 -x {8.2 4.0 -1 ------- null}
- -t 0.70912 -s 1 -d 0 -p tcp -e 1040 -c 0 -i 15 -a 0 -x {8.2 4.0 2 ------- null}
h -t 0.70912 -s 1 -d 0 -p tcp -e 1040 -c 0 -i 15 -a 0 -x {8.2 4.0 -1 ------- null}
- -t 0.714666666666667 -s 1 -d 0 -p tcp -e 1040 -c 0 -i 16 -a 0 -x {8.3 5.0 1 ------- null}
h -t 0.714666666666667 -s 1 -d 0 -p tcp -e 1040 -c 0 -i 16 -a 0 -x {8.3 5.0 -1 ------- null}
- -t 0.720213333333334 -s 1 -d 0 -p tcp -e 1040 -c 0 -i 17 -a 0 -x {8.3 5.0 2 ------- null}
h -t 0.720213333333334 -s 1 -d 0 -p tcp -e 1040 -c 0 -i 17 -a 0 -x {8.3 5.0 -1 ------- null}
- -t 0.72576 -s 1 -d 0 -p tcp -e 1040 -c 0 -i 18 -a 0 -x {8.4 6.0 1 ------- null}
h -t 0.72576 -s 1 -d 0 -p tcp -e 1040 -c 0 -i 18 -a 0 -x {8.4 6.0 -1 ------- null}
r -t 0.726933333333333 -s 1 -d 0 -p tcp -e 1040 -c 0 -i 10 -a 0 -x {8.0 2.0 1 ------- null}
+ -t 0.726933333333333 -s 0 -d 2 -p tcp -e 1040 -c 0 -i 10 -a 0 -x {8.0 2.0 1 ------- null}
- -t 0.726933333333333 -s 0 -d 2 -p tcp -e 1040 -c 0 -i 10 -a 0 -x {8.0 2.0 1 ------- null}
h -t 0.726933333333333 -s 0 -d 2 -p tcp -e 1040 -c 0 -i 10 -a 0 -x {8.0 2.0 -1 ------- null}
- -t 0.731306666666667 -s 1 -d 0 -p tcp -e 1040 -c 0 -i 19 -a 0 -x {8.4 6.0 2 ------- null}
h -t 0.731306666666667 -s 1 -d 0 -p tcp -e 1040 -c 0 -i 19 -a 0 -x {8.4 6.0 -1 ------- null}
r -t 0.73248 -s 1 -d 0 -p tcp -e 1040 -c 0 -i 11 -a 0 -x {8.0 2.0 2 ------- null}
+ -t 0.73248 -s 0 -d 2 -p tcp -e 1040 -c 0 -i 11 -a 0 -x {8.0 2.0 2 ------- null}
- -t 0.73248 -s 0 -d 2 -p tcp -e 1040 -c 0 -i 11 -a 0 -x {8.0 2.0 2 ------- null}
h -t 0.73248 -s 0 -d 2 -p tcp -e 1040 -c 0 -i 11 -a 0 -x {8.0 2.0 -1 ------- null}
r -t 0.738026666666667 -s 1 -d 0 -p tcp -e 1040 -c 1 -i 12 -a 1 -x {8.1 3.0 1 ------- null}
+ -t 0.738026666666667 -s 0 -d 3 -p tcp -e 1040 -c 1 -i 12 -a 1 -x {8.1 3.0 1 ------- null}
- -t 0.738026666666667 -s 0 -d 3 -p tcp -e 1040 -c 1 -i 12 -a 1 -x {8.1 3.0 1 ------- null}
h -t 0.738026666666667 -s 0 -d 3 -p tcp -e 1040 -c 1 -i 12 -a 1 -x {8.1 3.0 -1 ------- null}
r -t 0.743573333333334 -s 1 -d 0 -p tcp -e 1040 -c 1 -i 13 -a 1 -x {8.1 3.0 2 ------- null}
+ -t 0.743573333333334 -s 0 -d 3 -p tcp -e 1040 -c 1 -i 13 -a 1 -x {8.1 3.0 2 ------- null}
- -t 0.743573333333334 -s 0 -d 3 -p tcp -e 1040 -c 1 -i 13 -a 1 -x {8.1 3.0 2 ------- null}
h -t 0.743573333333334 -s 0 -d 3 -p tcp -e 1040 -c 1 -i 13 -a 1 -x {8.1 3.0 -1 ------- null}
r -t 0.747765333333333 -s 0 -d 2 -p tcp -e 1040 -c 0 -i 10 -a 0 -x {8.0 2.0 1 ------- null}
+ -t 0.747765333333333 -s 2 -d 0 -p ack -e 40 -c 0 -i 20 -a 0 -x {2.0 8.0 1 ------- null}
- -t 0.747765333333333 -s 2 -d 0 -p ack -e 40 -c 0 -i 20 -a 0 -x {2.0 8.0 1 ------- null}
h -t 0.747765333333333 -s 2 -d 0 -p ack -e 40 -c 0 -i 20 -a 0 -x {2.0 8.0 -1 ------- null}
r -t 0.74912 -s 1 -d 0 -p tcp -e 1040 -c 0 -i 14 -a 0 -x {8.2 4.0 1 ------- null}
+ -t 0.74912 -s 0 -d 4 -p tcp -e 1040 -c 0 -i 14 -a 0 -x {8.2 4.0 1 ------- null}
- -t 0.74912 -s 0 -d 4 -p tcp -e 1040 -c 0 -i 14 -a 0 -x {8.2 4.0 1 ------- null}
h -t 0.74912 -s 0 -d 4 -p tcp -e 1040 -c 0 -i 14 -a 0 -x {8.2 4.0 -1 ------- null}
r -t 0.753312 -s 0 -d 2 -p tcp -e 1040 -c 0 -i 11 -a 0 -x {8.0 2.0 2 ------- null}
+ -t 0.753312 -s 2 -d 0 -p ack -e 40 -c 0 -i 21 -a 0 -x {2.0 8.0 2 ------- null}
- -t 0.753312 -s 2 -d 0 -p ack -e 40 -c 0 -i 21 -a 0 -x {2.0 8.0 2 ------- null}
h -t 0.753312 -s 2 -d 0 -p ack -e 40 -c 0 -i 21 -a 0 -x {2.0 8.0 -1 ------- null}
r -t 0.754666666666667 -s 1 -d 0 -p tcp -e 1040 -c 0 -i 15 -a 0 -x {8.2 4.0 2 ------- null}
+ -t 0.754666666666667 -s 0 -d 4 -p tcp -e 1040 -c 0 -i 15 -a 0 -x {8.2 4.0 2 ------- null}
- -t 0.754666666666667 -s 0 -d 4 -p tcp -e 1040 -c 0 -i 15 -a 0 -x {8.2 4.0 2 ------- null}
h -t 0.754666666666667 -s 0 -d 4 -p tcp -e 1040 -c 0 -i 15 -a 0 -x {8.2 4.0 -1 ------- null}
r -t 0.758858666666667 -s 0 -d 3 -p tcp -e 1040 -c 1 -i 12 -a 1 -x {8.1 3.0 1 ------- null}
+ -t 0.758858666666667 -s 3 -d 0 -p ack -e 40 -c 1 -i 22 -a 1 -x {3.0 8.1 1 ------- null}
- -t 0.758858666666667 -s 3 -d 0 -p ack -e 40 -c 1 -i 22 -a 1 -x {3.0 8.1 1 ------- null}
h -t 0.758858666666667 -s 3 -d 0 -p ack -e 40 -c 1 -i 22 -a 1 -x {3.0 8.1 -1 ------- null}
r -t 0.760213333333334 -s 1 -d 0 -p tcp -e 1040 -c 0 -i 16 -a 0 -x {8.3 5.0 1 ------- null}
+ -t 0.760213333333334 -s 0 -d 5 -p tcp -e 1040 -c 0 -i 16 -a 0 -x {8.3 5.0 1 ------- null}
- -t 0.760213333333334 -s 0 -d 5 -p tcp -e 1040 -c 0 -i 16 -a 0 -x {8.3 5.0 1 ------- null}
h -t 0.760213333333334 -s 0 -d 5 -p tcp -e 1040 -c 0 -i 16 -a 0 -x {8.3 5.0 -1 ------- null}
r -t 0.764405333333333 -s 0 -d 3 -p tcp -e 1040 -c 1 -i 13 -a 1 -x {8.1 3.0 2 ------- null}
+ -t 0.764405333333333 -s 3 -d 0 -p ack -e 40 -c 1 -i 23 -a 1 -x {3.0 8.1 2 ------- null}
- -t 0.764405333333333 -s 3 -d 0 -p ack -e 40 -c 1 -i 23 -a 1 -x {3.0 8.1 2 ------- null}
h -t 0.764405333333333 -s 3 -d 0 -p ack -e 40 -c 1 -i 23 -a 1 -x {3.0 8.1 -1 ------- null}
r -t 0.76576 -s 1 -d 0 -p tcp -e 1040 -c 0 -i 17 -a 0 -x {8.3 5.0 2 ------- null}
+ -t 0.76576 -s 0 -d 5 -p tcp -e 1040 -c 0 -i 17 -a 0 -x {8.3 5.0 2 ------- null}
- -t 0.76576 -s 0 -d 5 -p tcp -e 1040 -c 0 -i 17 -a 0 -x {8.3 5.0 2 ------- null}
h -t 0.76576 -s 0 -d 5 -p tcp -e 1040 -c 0 -i 17 -a 0 -x {8.3 5.0 -1 ------- null}
r -t 0.767797333333333 -s 2 -d 0 -p ack -e 40 -c 0 -i 20 -a 0 -x {2.0 8.0 1 ------- null}
+ -t 0.767797333333333 -s 0 -d 1 -p ack -e 40 -c 0 -i 20 -a 0 -x {2.0 8.0 1 ------- null}
- -t 0.767797333333333 -s 0 -d 1 -p ack -e 40 -c 0 -i 20 -a 0 -x {2.0 8.0 1 ------- null}
h -t 0.767797333333333 -s 0 -d 1 -p ack -e 40 -c 0 -i 20 -a 0 -x {2.0 8.0 -1 ------- null}
r -t 0.769952 -s 0 -d 4 -p tcp -e 1040 -c 0 -i 14 -a 0 -x {8.2 4.0 1 ------- null}
+ -t 0.769952 -s 4 -d 0 -p ack -e 40 -c 0 -i 24 -a 0 -x {4.0 8.2 1 ------- null}
- -t 0.769952 -s 4 -d 0 -p ack -e 40 -c 0 -i 24 -a 0 -x {4.0 8.2 1 ------- null}
h -t 0.769952 -s 4 -d 0 -p ack -e 40 -c 0 -i 24 -a 0 -x {4.0 8.2 -1 ------- null}
r -t 0.771306666666667 -s 1 -d 0 -p tcp -e 1040 -c 0 -i 18 -a 0 -x {8.4 6.0 1 ------- null}
+ -t 0.771306666666667 -s 0 -d 6 -p tcp -e 1040 -c 0 -i 18 -a 0 -x {8.4 6.0 1 ------- null}
- -t 0.771306666666667 -s 0 -d 6 -p tcp -e 1040 -c 0 -i 18 -a 0 -x {8.4 6.0 1 ------- null}
h -t 0.771306666666667 -s 0 -d 6 -p tcp -e 1040 -c 0 -i 18 -a 0 -x {8.4 6.0 -1 ------- null}
r -t 0.773344 -s 2 -d 0 -p ack -e 40 -c 0 -i 21 -a 0 -x {2.0 8.0 2 ------- null}
+ -t 0.773344 -s 0 -d 1 -p ack -e 40 -c 0 -i 21 -a 0 -x {2.0 8.0 2 ------- null}
- -t 0.773344 -s 0 -d 1 -p ack -e 40 -c 0 -i 21 -a 0 -x {2.0 8.0 2 ------- null}
h -t 0.773344 -s 0 -d 1 -p ack -e 40 -c 0 -i 21 -a 0 -x {2.0 8.0 -1 ------- null}
r -t 0.775498666666667 -s 0 -d 4 -p tcp -e 1040 -c 0 -i 15 -a 0 -x {8.2 4.0 2 ------- null}
+ -t 0.775498666666667 -s 4 -d 0 -p ack -e 40 -c 0 -i 25 -a 0 -x {4.0 8.2 2 ------- null}
- -t 0.775498666666667 -s 4 -d 0 -p ack -e 40 -c 0 -i 25 -a 0 -x {4.0 8.2 2 ------- null}
h -t 0.775498666666667 -s 4 -d 0 -p ack -e 40 -c 0 -i 25 -a 0 -x {4.0 8.2 -1 ------- null}
r -t 0.776853333333334 -s 1 -d 0 -p tcp -e 1040 -c 0 -i 19 -a 0 -x {8.4 6.0 2 ------- null}
+ -t 0.776853333333334 -s 0 -d 6 -p tcp -e 1040 -c 0 -i 19 -a 0 -x {8.4 6.0 2 ------- null}
- -t 0.776853333333334 -s 0 -d 6 -p tcp -e 1040 -c 0 -i 19 -a 0 -x {8.4 6.0 2 ------- null}
h -t 0.776853333333334 -s 0 -d 6 -p tcp -e 1040 -c 0 -i 19 -a 0 -x {8.4 6.0 -1 ------- null}
r -t 0.778890666666667 -s 3 -d 0 -p ack -e 40 -c 1 -i 22 -a 1 -x {3.0 8.1 1 ------- null}
+ -t 0.778890666666667 -s 0 -d 1 -p ack -e 40 -c 1 -i 22 -a 1 -x {3.0 8.1 1 ------- null}
- -t 0.778890666666667 -s 0 -d 1 -p ack -e 40 -c 1 -i 22 -a 1 -x {3.0 8.1 1 ------- null}
h -t 0.778890666666667 -s 0 -d 1 -p ack -e 40 -c 1 -i 22 -a 1 -x {3.0 8.1 -1 ------- null}
r -t 0.781045333333334 -s 0 -d 5 -p tcp -e 1040 -c 0 -i 16 -a 0 -x {8.3 5.0 1 ------- null}
+ -t 0.781045333333334 -s 5 -d 0 -p ack -e 40 -c 0 -i 26 -a 0 -x {5.0 8.3 1 ------- null}
- -t 0.781045333333334 -s 5 -d 0 -p ack -e 40 -c 0 -i 26 -a 0 -x {5.0 8.3 1 ------- null}
h -t 0.781045333333334 -s 5 -d 0 -p ack -e 40 -c 0 -i 26 -a 0 -x {5.0 8.3 -1 ------- null}
r -t 0.784437333333334 -s 3 -d 0 -p ack -e 40 -c 1 -i 23 -a 1 -x {3.0 8.1 2 ------- null}
+ -t 0.784437333333334 -s 0 -d 1 -p ack -e 40 -c 1 -i 23 -a 1 -x {3.0 8.1 2 ------- null}
- -t 0.784437333333334 -s 0 -d 1 -p ack -e 40 -c 1 -i 23 -a 1 -x {3.0 8.1 2 ------- null}
h -t 0.784437333333334 -s 0 -d 1 -p ack -e 40 -c 1 -i 23 -a 1 -x {3.0 8.1 -1 ------- null}
r -t 0.786592 -s 0 -d 5 -p tcp -e 1040 -c 0 -i 17 -a 0 -x {8.3 5.0 2 ------- null}
+ -t 0.786592 -s 5 -d 0 -p ack -e 40 -c 0 -i 27 -a 0 -x {5.0 8.3 2 ------- null}
- -t 0.786592 -s 5 -d 0 -p ack -e 40 -c 0 -i 27 -a 0 -x {5.0 8.3 2 ------- null}
h -t 0.786592 -s 5 -d 0 -p ack -e 40 -c 0 -i 27 -a 0 -x {5.0 8.3 -1 ------- null}
r -t 0.789984 -s 4 -d 0 -p ack -e 40 -c 0 -i 24 -a 0 -x {4.0 8.2 1 ------- null}
+ -t 0.789984 -s 0 -d 1 -p ack -e 40 -c 0 -i 24 -a 0 -x {4.0 8.2 1 ------- null}
- -t 0.789984 -s 0 -d 1 -p ack -e 40 -c 0 -i 24 -a 0 -x {4.0 8.2 1 ------- null}
h -t 0.789984 -s 0 -d 1 -p ack -e 40 -c 0 -i 24 -a 0 -x {4.0 8.2 -1 ------- null}
r -t 0.792138666666667 -s 0 -d 6 -p tcp -e 1040 -c 0 -i 18 -a 0 -x {8.4 6.0 1 ------- null}
+ -t 0.792138666666667 -s 6 -d 0 -p ack -e 40 -c 0 -i 28 -a 0 -x {6.0 8.4 1 ------- null}
- -t 0.792138666666667 -s 6 -d 0 -p ack -e 40 -c 0 -i 28 -a 0 -x {6.0 8.4 1 ------- null}
h -t 0.792138666666667 -s 6 -d 0 -p ack -e 40 -c 0 -i 28 -a 0 -x {6.0 8.4 -1 ------- null}
r -t 0.795530666666667 -s 4 -d 0 -p ack -e 40 -c 0 -i 25 -a 0 -x {4.0 8.2 2 ------- null}
+ -t 0.795530666666667 -s 0 -d 1 -p ack -e 40 -c 0 -i 25 -a 0 -x {4.0 8.2 2 ------- null}
- -t 0.795530666666667 -s 0 -d 1 -p ack -e 40 -c 0 -i 25 -a 0 -x {4.0 8.2 2 ------- null}
h -t 0.795530666666667 -s 0 -d 1 -p ack -e 40 -c 0 -i 25 -a 0 -x {4.0 8.2 -1 ------- null}
r -t 0.797685333333334 -s 0 -d 6 -p tcp -e 1040 -c 0 -i 19 -a 0 -x {8.4 6.0 2 ------- null}
+ -t 0.797685333333334 -s 6 -d 0 -p ack -e 40 -c 0 -i 29 -a 0 -x {6.0 8.4 2 ------- null}
- -t 0.797685333333334 -s 6 -d 0 -p ack -e 40 -c 0 -i 29 -a 0 -x {6.0 8.4 2 ------- null}
h -t 0.797685333333334 -s 6 -d 0 -p ack -e 40 -c 0 -i 29 -a 0 -x {6.0 8.4 -1 ------- null}
r -t 0.801077333333334 -s 5 -d 0 -p ack -e 40 -c 0 -i 26 -a 0 -x {5.0 8.3 1 ------- null}
+ -t 0.801077333333334 -s 0 -d 1 -p ack -e 40 -c 0 -i 26 -a 0 -x {5.0 8.3 1 ------- null}
- -t 0.801077333333334 -s 0 -d 1 -p ack -e 40 -c 0 -i 26 -a 0 -x {5.0 8.3 1 ------- null}
h -t 0.801077333333334 -s 0 -d 1 -p ack -e 40 -c 0 -i 26 -a 0 -x {5.0 8.3 -1 ------- null}
r -t 0.806624 -s 5 -d 0 -p ack -e 40 -c 0 -i 27 -a 0 -x {5.0 8.3 2 ------- null}
+ -t 0.806624 -s 0 -d 1 -p ack -e 40 -c 0 -i 27 -a 0 -x {5.0 8.3 2 ------- null}
- -t 0.806624 -s 0 -d 1 -p ack -e 40 -c 0 -i 27 -a 0 -x {5.0 8.3 2 ------- null}
h -t 0.806624 -s 0 -d 1 -p ack -e 40 -c 0 -i 27 -a 0 -x {5.0 8.3 -1 ------- null}
r -t 0.808010666666667 -s 0 -d 1 -p ack -e 40 -c 0 -i 20 -a 0 -x {2.0 8.0 1 ------- null}
+ -t 0.808010666666667 -s 1 -d 8 -p ack -e 40 -c 0 -i 20 -a 0 -x {2.0 8.0 1 ------- null}
- -t 0.808010666666667 -s 1 -d 8 -p ack -e 40 -c 0 -i 20 -a 0 -x {2.0 8.0 1 ------- null}
h -t 0.808010666666667 -s 1 -d 8 -p ack -e 40 -c 0 -i 20 -a 0 -x {2.0 8.0 -1 ------- null}
r -t 0.812170666666667 -s 6 -d 0 -p ack -e 40 -c 0 -i 28 -a 0 -x {6.0 8.4 1 ------- null}
+ -t 0.812170666666667 -s 0 -d 1 -p ack -e 40 -c 0 -i 28 -a 0 -x {6.0 8.4 1 ------- null}
- -t 0.812170666666667 -s 0 -d 1 -p ack -e 40 -c 0 -i 28 -a 0 -x {6.0 8.4 1 ------- null}
h -t 0.812170666666667 -s 0 -d 1 -p ack -e 40 -c 0 -i 28 -a 0 -x {6.0 8.4 -1 ------- null}
r -t 0.813557333333333 -s 0 -d 1 -p ack -e 40 -c 0 -i 21 -a 0 -x {2.0 8.0 2 ------- null}
+ -t 0.813557333333333 -s 1 -d 8 -p ack -e 40 -c 0 -i 21 -a 0 -x {2.0 8.0 2 ------- null}
- -t 0.813557333333333 -s 1 -d 8 -p ack -e 40 -c 0 -i 21 -a 0 -x {2.0 8.0 2 ------- null}
h -t 0.813557333333333 -s 1 -d 8 -p ack -e 40 -c 0 -i 21 -a 0 -x {2.0 8.0 -1 ------- null}
r -t 0.817717333333334 -s 6 -d 0 -p ack -e 40 -c 0 -i 29 -a 0 -x {6.0 8.4 2 ------- null}
+ -t 0.817717333333334 -s 0 -d 1 -p ack -e 40 -c 0 -i 29 -a 0 -x {6.0 8.4 2 ------- null}
- -t 0.817717333333334 -s 0 -d 1 -p ack -e 40 -c 0 -i 29 -a 0 -x {6.0 8.4 2 ------- null}
h -t 0.817717333333334 -s 0 -d 1 -p ack -e 40 -c 0 -i 29 -a 0 -x {6.0 8.4 -1 ------- null}
r -t 0.819104 -s 0 -d 1 -p ack -e 40 -c 1 -i 22 -a 1 -x {3.0 8.1 1 ------- null}
+ -t 0.819104 -s 1 -d 8 -p ack -e 40 -c 1 -i 22 -a 1 -x {3.0 8.1 1 ------- null}
- -t 0.819104 -s 1 -d 8 -p ack -e 40 -c 1 -i 22 -a 1 -x {3.0 8.1 1 ------- null}
h -t 0.819104 -s 1 -d 8 -p ack -e 40 -c 1 -i 22 -a 1 -x {3.0 8.1 -1 ------- null}
r -t 0.824650666666667 -s 0 -d 1 -p ack -e 40 -c 1 -i 23 -a 1 -x {3.0 8.1 2 ------- null}
+ -t 0.824650666666667 -s 1 -d 8 -p ack -e 40 -c 1 -i 23 -a 1 -x {3.0 8.1 2 ------- null}
- -t 0.824650666666667 -s 1 -d 8 -p ack -e 40 -c 1 -i 23 -a 1 -x {3.0 8.1 2 ------- null}
h -t 0.824650666666667 -s 1 -d 8 -p ack -e 40 -c 1 -i 23 -a 1 -x {3.0 8.1 -1 ------- null}