+ 0.5 8 1 tcp 40 ------- 0 8.0 2.0 0 0
- 0.5 8 1 tcp 40 ------- 0 8.0 2.0 0 0
+ 0.5 8 1 tcp 40 ------- 1 8.1 3.0 0 1
+ 0.5 8 1 tcp 40 ------- 0 8.2 4.0 0 2
+ 0.5 8 1 tcp 40 ------- 0 8.3 5.0 0 3
+ 0.5 8 1 tcp 40 ------- 0 8.4 6.0 0 4
- 0.500032 8 1 tcp 40 ------- 1 8.1 3.0 0 1
- 0.500064 8 1 tcp 40 ------- 0 8.2 4.0 0 2
- 0.500096 8 1 tcp 40 ------- 0 8.3 5.0 0 3
- 0.500128 8 1 tcp 40 ------- 0 8.4 6.0 0 4
r 0.520032 8 1 tcp 40 ------- 0 8.0 2.0 0 0
+ 0.520032 1 0 tcp 40 ------- 0 8.0 2.0 0 0
- 0.520032 1 0 tcp 40 ------- 0 8.0 2.0 0 0
r 0.520064 8 1 tcp 40 ------- 1 8.1 3.0 0 1
+ 0.520064 1 0 tcp 40 ------- 1 8.1 3.0 0 1
r 0.520096 8 1 tcp 40 ------- 0 8.2 4.0 0 2
+ 0.520096 1 0 tcp 40 ------- 0 8.2 4.0 0 2
r 0.520128 8 1 tcp 40 ------- 0 8.3 5.0 0 3
+ 0.520128 1 0 tcp 40 ------- 0 8.3 5.0 0 3
r 0.52016 8 1 tcp 40 ------- 0 8.4 6.0 0 4
+ 0.52016 1 0 tcp 40 ------- 0 8.4 6.0 0 4
- 0.520245 1 0 tcp 40 ------- 1 8.1 3.0 0 1
- 0.520459 1 0 tcp 40 ------- 0 8.2 4.0 0 2
- 0.520672 1 0 tcp 40 ------- 0 8.3 5.0 0 3
- 0.520885 1 0 tcp 40 ------- 0 8.4 6.0 0 4
r 0.560245 1 0 tcp 40 ------- 0 8.0 2.0 0 0
+ 0.560245 0 2 tcp 40 ------- 0 8.0 2.0 0 0
- 0.560245 0 2 tcp 40 ------- 0 8.0 2.0 0 0
r 0.560459 1 0 tcp 40 ------- 1 8.1 3.0 0 1
+ 0.560459 0 3 tcp 40 ------- 1 8.1 3.0 0 1
- 0.560459 0 3 tcp 40 ------- 1 8.1 3.0 0 1
r 0.560672 1 0 tcp 40 ------- 0 8.2 4.0 0 2
+ 0.560672 0 4 tcp 40 ------- 0 8.2 4.0 0 2
- 0.560672 0 4 tcp 40 ------- 0 8.2 4.0 0 2
r 0.560885 1 0 tcp 40 ------- 0 8.3 5.0 0 3
+ 0.560885 0 5 tcp 40 ------- 0 8.3 5.0 0 3
- 0.560885 0 5 tcp 40 ------- 0 8.3 5.0 0 3
r 0.561099 1 0 tcp 40 ------- 0 8.4 6.0 0 4
+ 0.561099 0 6 tcp 40 ------- 0 8.4 6.0 0 4
- 0.561099 0 6 tcp 40 ------- 0 8.4 6.0 0 4
r 0.580277 0 2 tcp 40 ------- 0 8.0 2.0 0 0
+ 0.580277 2 0 ack 40 ------- 0 2.0 8.0 0 5
- 0.580277 2 0 ack 40 ------- 0 2.0 8.0 0 5
r 0.580491 0 3 tcp 40 ------- 1 8.1 3.0 0 1
+ 0.580491 3 0 ack 40 ------- 1 3.0 8.1 0 6
- 0.580491 3 0 ack 40 ------- 1 3.0 8.1 0 6
r 0.580704 0 4 tcp 40 ------- 0 8.2 4.0 0 2
+ 0.580704 4 0 ack 40 ------- 0 4.0 8.2 0 7
- 0.580704 4 0 ack 40 ------- 0 4.0 8.2 0 7
r 0.580917 0 5 tcp 40 ------- 0 8.3 5.0 0 3
+ 0.580917 5 0 ack 40 ------- 0 5.0 8.3 0 8
- 0.580917 5 0 ack 40 ------- 0 5.0 8.3 0 8
r 0.581131 0 6 tcp 40 ------- 0 8.4 6.0 0 4
+ 0.581131 6 0 ack 40 ------- 0 6.0 8.4 0 9
- 0.581131 6 0 ack 40 ------- 0 6.0 8.4 0 9
r 0.600309 2 0 ack 40 ------- 0 2.0 8.0 0 5
+ 0.600309 0 1 ack 40 ------- 0 2.0 8.0 0 5
- 0.600309 0 1 ack 40 ------- 0 2.0 8.0 0 5
r 0.600523 3 0 ack 40 ------- 1 3.0 8.1 0 6
+ 0.600523 0 1 ack 40 ------- 1 3.0 8.1 0 6
- 0.600523 0 1 ack 40 ------- 1 3.0 8.1 0 6
r 0.600736 4 0 ack 40 ------- 0 4.0 8.2 0 7
+ 0.600736 0 1 ack 40 ------- 0 4.0 8.2 0 7
- 0.600736 0 1 ack 40 ------- 0 4.0 8.2 0 7
r 0.600949 5 0 ack 40 ------- 0 5.0 8.3 0 8
+ 0.600949 0 1 ack 40 ------- 0 5.0 8.3 0 8
- 0.600949 0 1 ack 40 ------- 0 5.0 8.3 0 8
r 0.601163 6 0 ack 40 ------- 0 6.0 8.4 0 9
+ 0.601163 0 1 ack 40 ------- 0 6.0 8.4 0 9
- 0.601163 0 1 ack 40 ------- 0 6.0 8.4 0 9
r 0.640523 0 1 ack 40 ------- 0 2.0 8.0 0 5
+ 0.640523 1 8 ack 40 ------- 0 2.0 8.0 0 5
- 0.640523 1 8 ack 40 ------- 0 2.0 8.0 0 5
r 0.640736 0 1 ack 40 ------- 1 3.0 8.1 0 6
+ 0.640736 1 8 ack 40 ------- 1 3.0 8.1 0 6
- 0.640736 1 8 ack 40 ------- 1 3.0 8.1 0 6
r 0.640949 0 1 ack 40 ------- 0 4.0 8.2 0 7
+ 0.640949 1 8 ack 40 ------- 0 4.0 8.2 0 7
- 0.640949 1 8 ack 40 ------- 0 4.0 8.2 0 7
r 0.641163 0 1 ack 40 ------- 0 5.0 8.3 0 8
+ 0.641163 1 8 ack 40 ------- 0 5.0 8.3 0 8
- 0.641163 1 8 ack 40 ------- 0 5.0 8.3 0 8
r 0.641376 0 1 ack 40 ------- 0 6.0 8.4 0 9
+ 0.641376 1 8 ack 40 ------- 0 6.0 8.4 0 9
- 0.641376 1 8 ack 40 ------- 0 6.0 8.4 0 9
r 0.660555 1 8 ack 40 ------- 0 2.0 8.0 0 5
+ 0.660555 8 1 tcp 1040 ------- 0 8.0 2.0 1 10
- 0.660555 8 1 tcp 1040 ------- 0 8.0 2.0 1 10
+ 0.660555 8 1 tcp 1040 ------- 0 8.0 2.0 2 11
r 0.660768 1 8 ack 40 ------- 1 3.0 8.1 0 6
+ 0.660768 8 1 tcp 1040 ------- 1 8.1 3.0 1 12
+ 0.660768 8 1 tcp 1040 ------- 1 8.1 3.0 2 13
r 0.660981 1 8 ack 40 ------- 0 4.0 8.2 0 7
+ 0.660981 8 1 tcp 1040 ------- 0 8.2 4.0 1 14
+ 0.660981 8 1 tcp 1040 ------- 0 8.2 4.0 2 15
r 0.661195 1 8 ack 40 ------- 0 5.0 8.3 0 8
+ 0.661195 8 1 tcp 1040 ------- 0 8.3 5.0 1 16
+ 0.661195 8 1 tcp 1040 ------- 0 8.3 5.0 2 17
- 0.661387 8 1 tcp 1040 ------- 0 8.0 2.0 2 11
r 0.661408 1 8 ack 40 ------- 0 6.0 8.4 0 9
+ 0.661408 8 1 tcp 1040 ------- 0 8.4 6.0 1 18
+ 0.661408 8 1 tcp 1040 ------- 0 8.4 6.0 2 19
- 0.662219 8 1 tcp 1040 ------- 1 8.1 3.0 1 12
- 0.663051 8 1 tcp 1040 ------- 1 8.1 3.0 2 13
- 0.663883 8 1 tcp 1040 ------- 0 8.2 4.0 1 14
- 0.664715 8 1 tcp 1040 ------- 0 8.2 4.0 2 15
- 0.665547 8 1 tcp 1040 ------- 0 8.3 5.0 1 16
- 0.666379 8 1 tcp 1040 ------- 0 8.3 5.0 2 17
- 0.667211 8 1 tcp 1040 ------- 0 8.4 6.0 1 18
- 0.668043 8 1 tcp 1040 ------- 0 8.4 6.0 2 19
r 0.681387 8 1 tcp 1040 ------- 0 8.0 2.0 1 10
+ 0.681387 1 0 tcp 1040 ------- 0 8.0 2.0 1 10
- 0.681387 1 0 tcp 1040 ------- 0 8.0 2.0 1 10
r 0.682219 8 1 tcp 1040 ------- 0 8.0 2.0 2 11
+ 0.682219 1 0 tcp 1040 ------- 0 8.0 2.0 2 11
r 0.683051 8 1 tcp 1040 ------- 1 8.1 3.0 1 12
+ 0.683051 1 0 tcp 1040 ------- 1 8.1 3.0 1 12
r 0.683883 8 1 tcp 1040 ------- 1 8.1 3.0 2 13
+ 0.683883 1 0 tcp 1040 ------- 1 8.1 3.0 2 13
r 0.684715 8 1 tcp 1040 ------- 0 8.2 4.0 1 14
+ 0.684715 1 0 tcp 1040 ------- 0 8.2 4.0 1 14
r 0.685547 8 1 tcp 1040 ------- 0 8.2 4.0 2 15
+ 0.685547 1 0 tcp 1040 ------- 0 8.2 4.0 2 15
r 0.686379 8 1 tcp 1040 ------- 0 8.3 5.0 1 16
+ 0.686379 1 0 tcp 1040 ------- 0 8.3 5.0 1 16
- 0.686933 1 0 tcp 1040 ------- 0 8.0 2.0 2 11
r 0.687211 8 1 tcp 1040 ------- 0 8.3 5.0 2 17
+ 0.687211 1 0 tcp 1040 ------- 0 8.3 5.0 2 17
r 0.688043 8 1 tcp 1040 ------- 0 8.4 6.0 1 18
+ 0.688043 1 0 tcp 1040 ------- 0 8.4 6.0 1 18
r 0.688875 8 1 tcp 1040 ------- 0 8.4 6.0 2 19
+ 0.688875 1 0 tcp 1040 ------- 0 8.4 6.0 2 19
- 0.69248 1 0 tcp 1040 ------- 1 8.1 3.0 1 12
- 0.698027 1 0 tcp 1040 ------- 1 8.1 3.0 2 13
- 0.703573 1 0 tcp 1040 ------- 0 8.2 4.0 1 14
- 0.70912 1 0 tcp 1040 ------- 0 8.2 4.0 2 15
- 0.714667 1 0 tcp 1040 ------- 0 8.3 5.0 1 16
- 0.720213 1 0 tcp 1040 ------- 0 8.3 5.0 2 17
- 0.72576 1 0 tcp 1040 ------- 0 8.4 6.0 1 18
r 0.726933 1 0 tcp 1040 ------- 0 8.0 2.0 1 10
+ 0.726933 0 2 tcp 1040 ------- 0 8.0 2.0 1 10
- 0.726933 0 2 tcp 1040 ------- 0 8.0 2.0 1 10
- 0.731307 1 0 tcp 1040 ------- 0 8.4 6.0 2 19
r 0.73248 1 0 tcp 1040 ------- 0 8.0 2.0 2 11
+ 0.73248 0 2 tcp 1040 ------- 0 8.0 2.0 2 11
- 0.73248 0 2 tcp 1040 ------- 0 8.0 2.0 2 11
r 0.738027 1 0 tcp 1040 ------- 1 8.1 3.0 1 12
+ 0.738027 0 3 tcp 1040 ------- 1 8.1 3.0 1 12
- 0.738027 0 3 tcp 1040 ------- 1 8.1 3.0 1 12
r 0.743573 1 0 tcp 1040 ------- 1 8.1 3.0 2 13
+ 0.743573 0 3 tcp 1040 ------- 1 8.1 3.0 2 13
- 0.743573 0 3 tcp 1040 ------- 1 8.1 3.0 2 13
r 0.747765 0 2 tcp 1040 ------- 0 8.0 2.0 1 10
+ 0.747765 2 0 ack 40 ------- 0 2.0 8.0 1 20
- 0.747765 2 0 ack 40 ------- 0 2.0 8.0 1 20
r 0.74912 1 0 tcp 1040 ------- 0 8.2 4.0 1 14
+ 0.74912 0 4 tcp 1040 ------- 0 8.2 4.0 1 14
- 0.74912 0 4 tcp 1040 ------- 0 8.2 4.0 1 14
r 0.753312 0 2 tcp 1040 ------- 0 8.0 2.0 2 11
+ 0.753312 2 0 ack 40 ------- 0 2.0 8.0 2 21
- 0.753312 2 0 ack 40 ------- 0 2.0 8.0 2 21
r 0.754667 1 0 tcp 1040 ------- 0 8.2 4.0 2 15
+ 0.754667 0 4 tcp 1040 ------- 0 8.2 4.0 2 15
- 0.754667 0 4 tcp 1040 ------- 0 8.2 4.0 2 15
r 0.758859 0 3 tcp 1040 ------- 1 8.1 3.0 1 12
+ 0.758859 3 0 ack 40 ------- 1 3.0 8.1 1 22
- 0.758859 3 0 ack 40 ------- 1 3.0 8.1 1 22
r 0.760213 1 0 tcp 1040 ------- 0 8.3 5.0 1 16
+ 0.760213 0 5 tcp 1040 ------- 0 8.3 5.0 1 16
- 0.760213 0 5 tcp 1040 ------- 0 8.3 5.0 1 16
r 0.764405 0 3 tcp 1040 ------- 1 8.1 3.0 2 13
+ 0.764405 3 0 ack 40 ------- 1 3.0 8.1 2 23
- 0.764405 3 0 ack 40 ------- 1 3.0 8.1 2 23
r 0.76576 1 0 tcp 1040 ------- 0 8.3 5.0 2 17
+ 0.76576 0 5 tcp 1040 ------- 0 8.3 5.0 2 17
- 0.76576 0 5 tcp 1040 ------- 0 8.3 5.0 2 17
r 0.767797 2 0 ack 40 ------- 0 2.0 8.0 1 20
+ 0.767797 0 1 ack 40 ------- 0 2.0 8.0 1 20
- 0.767797 0 1 ack 40 ------- 0 2.0 8.0 1 20
r 0.769952 0 4 tcp 1040 ------- 0 8.2 4.0 1 14
+ 0.769952 4 0 ack 40 ------- 0 4.0 8.2 1 24
- 0.769952 4 0 ack 40 ------- 0 4.0 8.2 1 24
r 0.771307 1 0 tcp 1040 ------- 0 8.4 6.0 1 18
+ 0.771307 0 6 tcp 1040 ------- 0 8.4 6.0 1 18
- 0.771307 0 6 tcp 1040 ------- 0 8.4 6.0 1 18
r 0.773344 2 0 ack 40 ------- 0 2.0 8.0 2 21
+ 0.773344 0 1 ack 40 ------- 0 2.0 8.0 2 21
- 0.773344 0 1 ack 40 ------- 0 2.0 8.0 2 21
r 0.775499 0 4 tcp 1040 ------- 0 8.2 4.0 2 15
+ 0.775499 4 0 ack 40 ------- 0 4.0 8.2 2 25
- 0.775499 4 0 ack 40 ------- 0 4.0 8.2 2 25
r 0.776853 1 0 tcp 1040 ------- 0 8.4 6.0 2 19
+ 0.776853 0 6 tcp 1040 ------- 0 8.4 6.0 2 19
- 0.776853 0 6 tcp 1040 ------- 0 8.4 6.0 2 19
r 0.778891 3 0 ack 40 ------- 1 3.0 8.1 1 22
+ 0.778891 0 1 ack 40 ------- 1 3.0 8.1 1 22
- 0.778891 0 1 ack 40 ------- 1 3.0 8.1 1 22
r 0.781045 0 5 tcp 1040 ------- 0 8.3 5.0 1 16
+ 0.781045 5 0 ack 40 ------- 0 5.0 8.3 1 26
- 0.781045 5 0 ack 40 ------- 0 5.0 8.3 1 26
r 0.784437 3 0 ack 40 ------- 1 3.0 8.1 2 23
+ 0.784437 0 1 ack 40 ------- 1 3.0 8.1 2 23
- 0.784437 0 1 ack 40 ------- 1 3.0 8.1 2 23
r 0.786592 0 5 tcp 1040 ------- 0 8.3 5.0 2 17
+ 0.786592 5 0 ack 40 ------- 0 5.0 8.3 2 27
- 0.786592 5 0 ack 40 ------- 0 5.0 8.3 2 27
r 0.789984 4 0 ack 40 ------- 0 4.0 8.2 1 24
+ 0.789984 0 1 ack 40 ------- 0 4.0 8.2 1 24
- 0.789984 0 1 ack 40 ------- 0 4.0 8.2 1 24
r 0.792139 0 6 tcp 1040 ------- 0 8.4 6.0 1 18
+ 0.792139 6 0 ack 40 ------- 0 6.0 8.4 1 28
- 0.792139 6 0 ack 40 ------- 0 6.0 8.4 1 28
r 0.795531 4 0 ack 40 ------- 0 4.0 8.2 2 25
+ 0.795531 0 1 ack 40 ------- 0 4.0 8.2 2 25
- 0.795531 0 1 ack 40 ------- 0 4.0 8.2 2 25
r 0.797685 0 6 tcp 1040 ------- 0 8.4 6.0 2 19
+ 0.797685 6 0 ack 40 ------- 0 6.0 8.4 2 29
- 0.797685 6 0 ack 40 ------- 0 6.0 8.4 2 29
r 0.801077 5 0 ack 40 ------- 0 5.0 8.3 1 26
+ 0.801077 0 1 ack 40 ------- 0 5.0 8.3 1 26
- 0.801077 0 1 ack 40 ------- 0 5.0 8.3 1 26
r 0.806624 5 0 ack 40 ------- 0 5.0 8.3 2 27
+ 0.806624 0 1 ack 40 ------- 0 5.0 8.3 2 27
- 0.806624 0 1 ack 40 ------- 0 5.0 8.3 2 27
r 0.808011 0 1 ack 40 ------- 0 2.0 8.0 1 20
+ 0.808011 1 8 ack 40 ------- 0 2.0 8.0 1 20
- 0.808011 1 8 ack 40 ------- 0 2.0 8.0 1 20
r 0.812171 6 0 ack 40 ------- 0 6.0 8.4 1 28
+ 0.812171 0 1 ack 40 ------- 0 6.0 8.4 1 28
- 0.812171 0 1 ack 40 ------- 0 6.0 8.4 1 28
r 0.813557 0 1 ack 40 ------- 0 2.0 8.0 2 21
+ 0.813557 1 8 ack 40 ------- 0 2.0 8.0 2 21
- 0.813557 1 8 ack 40 ------- 0 2.0 8.0 2 21
r 0.817717 6 0 ack 40 ------- 0 6.0 8.4 2 29
+ 0.817717 0 1 ack 40 ------- 0 6.0 8.4 2 29
- 0.817717 0 1 ack 40 ------- 0 6.0 8.4 2 29
r 0.819104 0 1 ack 40 ------- 1 3.0 8.1 1 22
+ 0.819104 1 8 ack 40 ------- 1 3.0 8.1 1 22
- 0.819104 1 8 ack 40 ------- 1 3.0 8.1 1 22
r 0.824651 0 1 ack 40 ------- 1 3.0 8.1 2 23
+ 0.824651 1 8 ack 40 ------- 1 3.0 8.1 2 23
- 0.824651 1 8 ack 40 ------- 1 3.0 8.1 2 23
r 0.828043 1 8 ack 40 ------- 0 2.0 8.0 1 20
+ 0.828043 8 1 tcp 1040 ------- 0 8.0 2.0 3 30
- 0.828043 8 1 tcp 1040 ------- 0 8.0 2.0 3 30
+ 0.828043 8 1 tcp 1040 ------- 0 8.0 2.0 4 31
- 0.828875 8 1 tcp 1040 ------- 0 8.0 2.0 4 31
r 0.830197 0 1 ack 40 ------- 0 4.0 8.2 1 24
+ 0.830197 1 8 ack 40 ------- 0 4.0 8.2 1 24
- 0.830197 1 8 ack 40 ------- 0 4.0 8.2 1 24
r 0.833589 1 8 ack 40 ------- 0 2.0 8.0 2 21
+ 0.833589 8 1 tcp 1040 ------- 0 8.0 2.0 5 32
- 0.833589 8 1 tcp 1040 ------- 0 8.0 2.0 5 32
+ 0.833589 8 1 tcp 1040 ------- 0 8.0 2.0 6 33
- 0.834421 8 1 tcp 1040 ------- 0 8.0 2.0 6 33
r 0.835744 0 1 ack 40 ------- 0 4.0 8.2 2 25
+ 0.835744 1 8 ack 40 ------- 0 4.0 8.2 2 25
- 0.835744 1 8 ack 40 ------- 0 4.0 8.2 2 25
r 0.839136 1 8 ack 40 ------- 1 3.0 8.1 1 22
+ 0.839136 8 1 tcp 1040 ------- 1 8.1 3.0 3 34
- 0.839136 8 1 tcp 1040 ------- 1 8.1 3.0 3 34
+ 0.839136 8 1 tcp 1040 ------- 1 8.1 3.0 4 35
- 0.839968 8 1 tcp 1040 ------- 1 8.1 3.0 4 35
r 0.841291 0 1 ack 40 ------- 0 5.0 8.3 1 26
+ 0.841291 1 8 ack 40 ------- 0 5.0 8.3 1 26
- 0.841291 1 8 ack 40 ------- 0 5.0 8.3 1 26
r 0.844683 1 8 ack 40 ------- 1 3.0 8.1 2 23
+ 0.844683 8 1 tcp 1040 ------- 1 8.1 3.0 5 36
- 0.844683 8 1 tcp 1040 ------- 1 8.1 3.0 5 36
+ 0.844683 8 1 tcp 1040 ------- 1 8.1 3.0 6 37
- 0.845515 8 1 tcp 1040 ------- 1 8.1 3.0 6 37
r 0.846837 0 1 ack 40 ------- 0 5.0 8.3 2 27
+ 0.846837 1 8 ack 40 ------- 0 5.0 8.3 2 27
- 0.846837 1 8 ack 40 ------- 0 5.0 8.3 2 27
r 0.848875 8 1 tcp 1040 ------- 0 8.0 2.0 3 30
+ 0.848875 1 0 tcp 1040 ------- 0 8.0 2.0 3 30
- 0.848875 1 0 tcp 1040 ------- 0 8.0 2.0 3 30
r 0.849707 8 1 tcp 1040 ------- 0 8.0 2.0 4 31
+ 0.849707 1 0 tcp 1040 ------- 0 8.0 2.0 4 31
r 0.850229 1 8 ack 40 ------- 0 4.0 8.2 1 24
+ 0.850229 8 1 tcp 1040 ------- 0 8.2 4.0 3 38
- 0.850229 8 1 tcp 1040 ------- 0 8.2 4.0 3 38
+ 0.850229 8 1 tcp 1040 ------- 0 8.2 4.0 4 39
- 0.851061 8 1 tcp 1040 ------- 0 8.2 4.0 4 39
r 0.852384 0 1 ack 40 ------- 0 6.0 8.4 1 28
+ 0.852384 1 8 ack 40 ------- 0 6.0 8.4 1 28
- 0.852384 1 8 ack 40 ------- 0 6.0 8.4 1 28
r 0.854421 8 1 tcp 1040 ------- 0 8.0 2.0 5 32
+ 0.854421 1 0 tcp 1040 ------- 0 8.0 2.0 5 32
- 0.854421 1 0 tcp 1040 ------- 0 8.0 2.0 4 31
r 0.855253 8 1 tcp 1040 ------- 0 8.0 2.0 6 33
+ 0.855253 1 0 tcp 1040 ------- 0 8.0 2.0 6 33
r 0.855776 1 8 ack 40 ------- 0 4.0 8.2 2 25
+ 0.855776 8 1 tcp 1040 ------- 0 8.2 4.0 5 40
- 0.855776 8 1 tcp 1040 ------- 0 8.2 4.0 5 40
+ 0.855776 8 1 tcp 1040 ------- 0 8.2 4.0 6 41
- 0.856608 8 1 tcp 1040 ------- 0 8.2 4.0 6 41
r 0.857931 0 1 ack 40 ------- 0 6.0 8.4 2 29
+ 0.857931 1 8 ack 40 ------- 0 6.0 8.4 2 29
- 0.857931 1 8 ack 40 ------- 0 6.0 8.4 2 29
r 0.859968 8 1 tcp 1040 ------- 1 8.1 3.0 3 34
+ 0.859968 1 0 tcp 1040 ------- 1 8.1 3.0 3 34
- 0.859968 1 0 tcp 1040 ------- 0 8.0 2.0 5 32
r 0.8608 8 1 tcp 1040 ------- 1 8.1 3.0 4 35
+ 0.8608 1 0 tcp 1040 ------- 1 8.1 3.0 4 35
r 0.861323 1 8 ack 40 ------- 0 5.0 8.3 1 26
+ 0.861323 8 1 tcp 1040 ------- 0 8.3 5.0 3 42
- 0.861323 8 1 tcp 1040 ------- 0 8.3 5.0 3 42
+ 0.861323 8 1 tcp 1040 ------- 0 8.3 5.0 4 43
- 0.862155 8 1 tcp 1040 ------- 0 8.3 5.0 4 43
r 0.865515 8 1 tcp 1040 ------- 1 8.1 3.0 5 36
+ 0.865515 1 0 tcp 1040 ------- 1 8.1 3.0 5 36
- 0.865515 1 0 tcp 1040 ------- 0 8.0 2.0 6 33
r 0.866347 8 1 tcp 1040 ------- 1 8.1 3.0 6 37
+ 0.866347 1 0 tcp 1040 ------- 1 8.1 3.0 6 37
r 0.866869 1 8 ack 40 ------- 0 5.0 8.3 2 27
+ 0.866869 8 1 tcp 1040 ------- 0 8.3 5.0 5 44
- 0.866869 8 1 tcp 1040 ------- 0 8.3 5.0 5 44
+ 0.866869 8 1 tcp 1040 ------- 0 8.3 5.0 6 45
- 0.867701 8 1 tcp 1040 ------- 0 8.3 5.0 6 45
r 0.871061 8 1 tcp 1040 ------- 0 8.2 4.0 3 38
+ 0.871061 1 0 tcp 1040 ------- 0 8.2 4.0 3 38
- 0.871061 1 0 tcp 1040 ------- 1 8.1 3.0 3 34
r 0.871893 8 1 tcp 1040 ------- 0 8.2 4.0 4 39
+ 0.871893 1 0 tcp 1040 ------- 0 8.2 4.0 4 39
r 0.872416 1 8 ack 40 ------- 0 6.0 8.4 1 28
+ 0.872416 8 1 tcp 1040 ------- 0 8.4 6.0 3 46
- 0.872416 8 1 tcp 1040 ------- 0 8.4 6.0 3 46
+ 0.872416 8 1 tcp 1040 ------- 0 8.4 6.0 4 47
- 0.873248 8 1 tcp 1040 ------- 0 8.4 6.0 4 47
r 0.876608 8 1 tcp 1040 ------- 0 8.2 4.0 5 40
+ 0.876608 1 0 tcp 1040 ------- 0 8.2 4.0 5 40
- 0.876608 1 0 tcp 1040 ------- 1 8.1 3.0 4 35
r 0.87744 8 1 tcp 1040 ------- 0 8.2 4.0 6 41
+ 0.87744 1 0 tcp 1040 ------- 0 8.2 4.0 6 41
r 0.877963 1 8 ack 40 ------- 0 6.0 8.4 2 29
+ 0.877963 8 1 tcp 1040 ------- 0 8.4 6.0 5 48
- 0.877963 8 1 tcp 1040 ------- 0 8.4 6.0 5 48
+ 0.877963 8 1 tcp 1040 ------- 0 8.4 6.0 6 49
- 0.878795 8 1 tcp 1040 ------- 0 8.4 6.0 6 49
r 0.882155 8 1 tcp 1040 ------- 0 8.3 5.0 3 42
+ 0.882155 1 0 tcp 1040 ------- 0 8.3 5.0 3 42
- 0.882155 1 0 tcp 1040 ------- 1 8.1 3.0 5 36
r 0.882987 8 1 tcp 1040 ------- 0 8.3 5.0 4 43
+ 0.882987 1 0 tcp 1040 ------- 0 8.3 5.0 4 43
r 0.887701 8 1 tcp 1040 ------- 0 8.3 5.0 5 44
+ 0.887701 1 0 tcp 1040 ------- 0 8.3 5.0 5 44
- 0.887701 1 0 tcp 1040 ------- 1 8.1 3.0 6 37
r 0.888533 8 1 tcp 1040 ------- 0 8.3 5.0 6 45
+ 0.888533 1 0 tcp 1040 ------- 0 8.3 5.0 6 45
r 0.893248 8 1 tcp 1040 ------- 0 8.4 6.0 3 46
+ 0.893248 1 0 tcp 1040 ------- 0 8.4 6.0 3 46
- 0.893248 1 0 tcp 1040 ------- 0 8.2 4.0 3 38
r 0.89408 8 1 tcp 1040 ------- 0 8.4 6.0 4 47
+ 0.89408 1 0 tcp 1040 ------- 0 8.4 6.0 4 47
r 0.894421 1 0 tcp 1040 ------- 0 8.0 2.0 3 30
+ 0.894421 0 2 tcp 1040 ------- 0 8.0 2.0 3 30
- 0.894421 0 2 tcp 1040 ------- 0 8.0 2.0 3 30
r 0.898795 8 1 tcp 1040 ------- 0 8.4 6.0 5 48
+ 0.898795 1 0 tcp 1040 ------- 0 8.4 6.0 5 48
- 0.898795 1 0 tcp 1040 ------- 0 8.2 4.0 4 39
r 0.899627 8 1 tcp 1040 ------- 0 8.4 6.0 6 49
+ 0.899627 1 0 tcp 1040 ------- 0 8.4 6.0 6 49
r 0.899968 1 0 tcp 1040 ------- 0 8.0 2.0 4 31
+ 0.899968 0 2 tcp 1040 ------- 0 8.0 2.0 4 31
- 0.899968 0 2 tcp 1040 ------- 0 8.0 2.0 4 31
- 0.904341 1 0 tcp 1040 ------- 0 8.2 4.0 5 40
r 0.905515 1 0 tcp 1040 ------- 0 8.0 2.0 5 32
+ 0.905515 0 2 tcp 1040 ------- 0 8.0 2.0 5 32
- 0.905515 0 2 tcp 1040 ------- 0 8.0 2.0 5 32
- 0.909888 1 0 tcp 1040 ------- 0 8.2 4.0 6 41
r 0.911061 1 0 tcp 1040 ------- 0 8.0 2.0 6 33
+ 0.911061 0 2 tcp 1040 ------- 0 8.0 2.0 6 33
- 0.911061 0 2 tcp 1040 ------- 0 8.0 2.0 6 33
r 0.915253 0 2 tcp 1040 ------- 0 8.0 2.0 3 30
+ 0.915253 2 0 ack 40 ------- 0 2.0 8.0 3 50
- 0.915253 2 0 ack 40 ------- 0 2.0 8.0 3 50
- 0.915435 1 0 tcp 1040 ------- 0 8.3 5.0 3 42
r 0.916608 1 0 tcp 1040 ------- 1 8.1 3.0 3 34
+ 0.916608 0 3 tcp 1040 ------- 1 8.1 3.0 3 34
- 0.916608 0 3 tcp 1040 ------- 1 8.1 3.0 3 34
r 0.9208 0 2 tcp 1040 ------- 0 8.0 2.0 4 31
+ 0.9208 2 0 ack 40 ------- 0 2.0 8.0 4 51
- 0.9208 2 0 ack 40 ------- 0 2.0 8.0 4 51
- 0.920981 1 0 tcp 1040 ------- 0 8.3 5.0 4 43
r 0.922155 1 0 tcp 1040 ------- 1 8.1 3.0 4 35
+ 0.922155 0 3 tcp 1040 ------- 1 8.1 3.0 4 35
- 0.922155 0 3 tcp 1040 ------- 1 8.1 3.0 4 35
r 0.926347 0 2 tcp 1040 ------- 0 8.0 2.0 5 32
+ 0.926347 2 0 ack 40 ------- 0 2.0 8.0 5 52
- 0.926347 2 0 ack 40 ------- 0 2.0 8.0 5 52
- 0.926528 1 0 tcp 1040 ------- 0 8.3 5.0 5 44
r 0.927701 1 0 tcp 1040 ------- 1 8.1 3.0 5 36
+ 0.927701 0 3 tcp 1040 ------- 1 8.1 3.0 5 36
- 0.927701 0 3 tcp 1040 ------- 1 8.1 3.0 5 36
r 0.931893 0 2 tcp 1040 ------- 0 8.0 2.0 6 33
+ 0.931893 2 0 ack 40 ------- 0 2.0 8.0 6 53
- 0.931893 2 0 ack 40 ------- 0 2.0 8.0 6 53
- 0.932075 1 0 tcp 1040 ------- 0 8.3 5.0 6 45
r 0.933248 1 0 tcp 1040 ------- 1 8.1 3.0 6 37
+ 0.933248 0 3 tcp 1040 ------- 1 8.1 3.0 6 37
- 0.933248 0 3 tcp 1040 ------- 1 8.1 3.0 6 37
r 0.935285 2 0 ack 40 ------- 0 2.0 8.0 3 50
+ 0.935285 0 1 ack 40 ------- 0 2.0 8.0 3 50
- 0.935285 0 1 ack 40 ------- 0 2.0 8.0 3 50
r 0.93744 0 3 tcp 1040 ------- 1 8.1 3.0 3 34
+ 0.93744 3 0 ack 40 ------- 1 3.0 8.1 3 54
- 0.93744 3 0 ack 40 ------- 1 3.0 8.1 3 54
- 0.937621 1 0 tcp 1040 ------- 0 8.4 6.0 3 46
r 0.938795 1 0 tcp 1040 ------- 0 8.2 4.0 3 38
+ 0.938795 0 4 tcp 1040 ------- 0 8.2 4.0 3 38
- 0.938795 0 4 tcp 1040 ------- 0 8.2 4.0 3 38
r 0.940832 2 0 ack 40 ------- 0 2.0 8.0 4 51
+ 0.940832 0 1 ack 40 ------- 0 2.0 8.0 4 51
- 0.940832 0 1 ack 40 ------- 0 2.0 8.0 4 51
r 0.942987 0 3 tcp 1040 ------- 1 8.1 3.0 4 35
+ 0.942987 3 0 ack 40 ------- 1 3.0 8.1 4 55
- 0.942987 3 0 ack 40 ------- 1 3.0 8.1 4 55
- 0.943168 1 0 tcp 1040 ------- 0 8.4 6.0 4 47
r 0.944341 1 0 tcp 1040 ------- 0 8.2 4.0 4 39
+ 0.944341 0 4 tcp 1040 ------- 0 8.2 4.0 4 39
- 0.944341 0 4 tcp 1040 ------- 0 8.2 4.0 4 39
r 0.946379 2 0 ack 40 ------- 0 2.0 8.0 5 52
+ 0.946379 0 1 ack 40 ------- 0 2.0 8.0 5 52
- 0.946379 0 1 ack 40 ------- 0 2.0 8.0 5 52
r 0.948533 0 3 tcp 1040 ------- 1 8.1 3.0 5 36
+ 0.948533 3 0 ack 40 ------- 1 3.0 8.1 5 56
- 0.948533 3 0 ack 40 ------- 1 3.0 8.1 5 56
- 0.948715 1 0 tcp 1040 ------- 0 8.4 6.0 5 48
r 0.949888 1 0 tcp 1040 ------- 0 8.2 4.0 5 40
+ 0.949888 0 4 tcp 1040 ------- 0 8.2 4.0 5 40
- 0.949888 0 4 tcp 1040 ------- 0 8.2 4.0 5 40
r 0.951925 2 0 ack 40 ------- 0 2.0 8.0 6 53
+ 0.951925 0 1 ack 40 ------- 0 2.0 8.0 6 53
- 0.951925 0 1 ack 40 ------- 0 2.0 8.0 6 53
r 0.95408 0 3 tcp 1040 ------- 1 8.1 3.0 6 37
+ 0.95408 3 0 ack 40 ------- 1 3.0 8.1 6 57
- 0.95408 3 0 ack 40 ------- 1 3.0 8.1 6 57
- 0.954261 1 0 tcp 1040 ------- 0 8.4 6.0 6 49
r 0.955435 1 0 tcp 1040 ------- 0 8.2 4.0 6 41
+ 0.955435 0 4 tcp 1040 ------- 0 8.2 4.0 6 41
- 0.955435 0 4 tcp 1040 ------- 0 8.2 4.0 6 41
r 0.957472 3 0 ack 40 ------- 1 3.0 8.1 3 54
+ 0.957472 0 1 ack 40 ------- 1 3.0 8.1 3 54
- 0.957472 0 1 ack 40 ------- 1 3.0 8.1 3 54
r 0.959627 0 4 tcp 1040 ------- 0 8.2 4.0 3 38
+ 0.959627 4 0 ack 40 ------- 0 4.0 8.2 3 58
- 0.959627 4 0 ack 40 ------- 0 4.0 8.2 3 58
r 0.960981 1 0 tcp 1040 ------- 0 8.3 5.0 3 42
+ 0.960981 0 5 tcp 1040 ------- 0 8.3 5.0 3 42
- 0.960981 0 5 tcp 1040 ------- 0 8.3 5.0 3 42
r 0.963019 3 0 ack 40 ------- 1 3.0 8.1 4 55
+ 0.963019 0 1 ack 40 ------- 1 3.0 8.1 4 55
- 0.963019 0 1 ack 40 ------- 1 3.0 8.1 4 55
r 0.965173 0 4 tcp 1040 ------- 0 8.2 4.0 4 39
+ 0.965173 4 0 ack 40 ------- 0 4.0 8.2 4 59
- 0.965173 4 0 ack 40 ------- 0 4.0 8.2 4 59
r 0.966528 1 0 tcp 1040 ------- 0 8.3 5.0 4 43
+ 0.966528 0 5 tcp 1040 ------- 0 8.3 5.0 4 43
- 0.966528 0 5 tcp 1040 ------- 0 8.3 5.0 4 43
r 0.968565 3 0 ack 40 ------- 1 3.0 8.1 5 56
+ 0.968565 0 1 ack 40 ------- 1 3.0 8.1 5 56
- 0.968565 0 1 ack 40 ------- 1 3.0 8.1 5 56
r 0.97072 0 4 tcp 1040 ------- 0 8.2 4.0 5 40
+ 0.97072 4 0 ack 40 ------- 0 4.0 8.2 5 60
- 0.97072 4 0 ack 40 ------- 0 4.0 8.2 5 60
r 0.972075 1 0 tcp 1040 ------- 0 8.3 5.0 5 44
+ 0.972075 0 5 tcp 1040 ------- 0 8.3 5.0 5 44
- 0.972075 0 5 tcp 1040 ------- 0 8.3 5.0 5 44
r 0.974112 3 0 ack 40 ------- 1 3.0 8.1 6 57
+ 0.974112 0 1 ack 40 ------- 1 3.0 8.1 6 57
- 0.974112 0 1 ack 40 ------- 1 3.0 8.1 6 57
r 0.975499 0 1 ack 40 ------- 0 2.0 8.0 3 50
+ 0.975499 1 8 ack 40 ------- 0 2.0 8.0 3 50
- 0.975499 1 8 ack 40 ------- 0 2.0 8.0 3 50
r 0.976267 0 4 tcp 1040 ------- 0 8.2 4.0 6 41
+ 0.976267 4 0 ack 40 ------- 0 4.0 8.2 6 61
- 0.976267 4 0 ack 40 ------- 0 4.0 8.2 6 61
r 0.977621 1 0 tcp 1040 ------- 0 8.3 5.0 6 45
+ 0.977621 0 5 tcp 1040 ------- 0 8.3 5.0 6 45
- 0.977621 0 5 tcp 1040 ------- 0 8.3 5.0 6 45
r 0.979659 4 0 ack 40 ------- 0 4.0 8.2 3 58
+ 0.979659 0 1 ack 40 ------- 0 4.0 8.2 3 58
- 0.979659 0 1 ack 40 ------- 0 4.0 8.2 3 58
r 0.981045 0 1 ack 40 ------- 0 2.0 8.0 4 51
+ 0.981045 1 8 ack 40 ------- 0 2.0 8.0 4 51
- 0.981045 1 8 ack 40 ------- 0 2.0 8.0 4 51
r 0.981813 0 5 tcp 1040 ------- 0 8.3 5.0 3 42
+ 0.981813 5 0 ack 40 ------- 0 5.0 8.3 3 62
- 0.981813 5 0 ack 40 ------- 0 5.0 8.3 3 62
r 0.983168 1 0 tcp 1040 ------- 0 8.4 6.0 3 46
+ 0.983168 0 6 tcp 1040 ------- 0 8.4 6.0 3 46
- 0.983168 0 6 tcp 1040 ------- 0 8.4 6.0 3 46
r 0.985205 4 0 ack 40 ------- 0 4.0 8.2 4 59
+ 0.985205 0 1 ack 40 ------- 0 4.0 8.2 4 59
- 0.985205 0 1 ack 40 ------- 0 4.0 8.2 4 59
r 0.986592 0 1 ack 40 ------- 0 2.0 8.0 5 52
+ 0.986592 1 8 ack 40 ------- 0 2.0 8.0 5 52
- 0.986592 1 8 ack 40 ------- 0 2.0 8.0 5 52
r 0.98736 0 5 tcp 1040 ------- 0 8.3 5.0 4 43
+ 0.98736 5 0 ack 40 ------- 0 5.0 8.3 4 63
- 0.98736 5 0 ack 40 ------- 0 5.0 8.3 4 63
r 0.988715 1 0 tcp 1040 ------- 0 8.4 6.0 4 47
+ 0.988715 0 6 tcp 1040 ------- 0 8.4 6.0 4 47
- 0.988715 0 6 tcp 1040 ------- 0 8.4 6.0 4 47
r 0.990752 4 0 ack 40 ------- 0 4.0 8.2 5 60
+ 0.990752 0 1 ack 40 ------- 0 4.0 8.2 5 60
- 0.990752 0 1 ack 40 ------- 0 4.0 8.2 5 60
r 0.992139 0 1 ack 40 ------- 0 2.0 8.0 6 53
+ 0.992139 1 8 ack 40 ------- 0 2.0 8.0 6 53
- 0.992139 1 8 ack 40 ------- 0 2.0 8.0 6 53
r 0.992907 0 5 tcp 1040 ------- 0 8.3 5.0 5 44
+ 0.992907 5 0 ack 40 ------- 0 5.0 8.3 5 64
- 0.992907 5 0 ack 40 ------- 0 5.0 8.3 5 64
r 0.994261 1 0 tcp 1040 ------- 0 8.4 6.0 5 48
+ 0.994261 0 6 tcp 1040 ------- 0 8.4 6.0 5 48
- 0.994261 0 6 tcp 1040 ------- 0 8.4 6.0 5 48
r 0.995531 1 8 ack 40 ------- 0 2.0 8.0 3 50
+ 0.995531 8 1 tcp 1040 ------- 0 8.0 2.0 7 65
- 0.995531 8 1 tcp 1040 ------- 0 8.0 2.0 7 65
+ 0.995531 8 1 tcp 1040 ------- 0 8.0 2.0 8 66
r 0.996299 4 0 ack 40 ------- 0 4.0 8.2 6 61
+ 0.996299 0 1 ack 40 ------- 0 4.0 8.2 6 61
- 0.996299 0 1 ack 40 ------- 0 4.0 8.2 6 61
- 0.996363 8 1 tcp 1040 ------- 0 8.0 2.0 8 66
r 0.997685 0 1 ack 40 ------- 1 3.0 8.1 3 54
+ 0.997685 1 8 ack 40 ------- 1 3.0 8.1 3 54
- 0.997685 1 8 ack 40 ------- 1 3.0 8.1 3 54
r 0.998453 0 5 tcp 1040 ------- 0 8.3 5.0 6 45
+ 0.998453 5 0 ack 40 ------- 0 5.0 8.3 6 67
- 0.998453 5 0 ack 40 ------- 0 5.0 8.3 6 67
r 0.999808 1 0 tcp 1040 ------- 0 8.4 6.0 6 49
+ 0.999808 0 6 tcp 1040 ------- 0 8.4 6.0 6 49
- 0.999808 0 6 tcp 1040 ------- 0 8.4 6.0 6 49
r 1.001077 1 8 ack 40 ------- 0 2.0 8.0 4 51
+ 1.001077 8 1 tcp 1040 ------- 0 8.0 2.0 9 68
- 1.001077 8 1 tcp 1040 ------- 0 8.0 2.0 9 68
+ 1.001077 8 1 tcp 1040 ------- 0 8.0 2.0 10 69
r 1.001845 5 0 ack 40 ------- 0 5.0 8.3 3 62
+ 1.001845 0 1 ack 40 ------- 0 5.0 8.3 3 62
- 1.001845 0 1 ack 40 ------- 0 5.0 8.3 3 62
- 1.001909 8 1 tcp 1040 ------- 0 8.0 2.0 10 69
r 1.003232 0 1 ack 40 ------- 1 3.0 8.1 4 55
+ 1.003232 1 8 ack 40 ------- 1 3.0 8.1 4 55
- 1.003232 1 8 ack 40 ------- 1 3.0 8.1 4 55
r 1.004 0 6 tcp 1040 ------- 0 8.4 6.0 3 46
+ 1.004 6 0 ack 40 ------- 0 6.0 8.4 3 70
- 1.004 6 0 ack 40 ------- 0 6.0 8.4 3 70
r 1.006624 1 8 ack 40 ------- 0 2.0 8.0 5 52
+ 1.006624 8 1 tcp 1040 ------- 0 8.0 2.0 11 71
- 1.006624 8 1 tcp 1040 ------- 0 8.0 2.0 11 71
+ 1.006624 8 1 tcp 1040 ------- 0 8.0 2.0 12 72
r 1.007392 5 0 ack 40 ------- 0 5.0 8.3 4 63
+ 1.007392 0 1 ack 40 ------- 0 5.0 8.3 4 63
- 1.007392 0 1 ack 40 ------- 0 5.0 8.3 4 63
- 1.007456 8 1 tcp 1040 ------- 0 8.0 2.0 12 72
r 1.008779 0 1 ack 40 ------- 1 3.0 8.1 5 56
+ 1.008779 1 8 ack 40 ------- 1 3.0 8.1 5 56
- 1.008779 1 8 ack 40 ------- 1 3.0 8.1 5 56
r 1.009547 0 6 tcp 1040 ------- 0 8.4 6.0 4 47
+ 1.009547 6 0 ack 40 ------- 0 6.0 8.4 4 73
- 1.009547 6 0 ack 40 ------- 0 6.0 8.4 4 73
r 1.012171 1 8 ack 40 ------- 0 2.0 8.0 6 53
+ 1.012171 8 1 tcp 1040 ------- 0 8.0 2.0 13 74
- 1.012171 8 1 tcp 1040 ------- 0 8.0 2.0 13 74
+ 1.012171 8 1 tcp 1040 ------- 0 8.0 2.0 14 75
r 1.012939 5 0 ack 40 ------- 0 5.0 8.3 5 64
+ 1.012939 0 1 ack 40 ------- 0 5.0 8.3 5 64
- 1.012939 0 1 ack 40 ------- 0 5.0 8.3 5 64
- 1.013003 8 1 tcp 1040 ------- 0 8.0 2.0 14 75
r 1.014325 0 1 ack 40 ------- 1 3.0 8.1 6 57
+ 1.014325 1 8 ack 40 ------- 1 3.0 8.1 6 57
- 1.014325 1 8 ack 40 ------- 1 3.0 8.1 6 57
r 1.015093 0 6 tcp 1040 ------- 0 8.4 6.0 5 48
+ 1.015093 6 0 ack 40 ------- 0 6.0 8.4 5 76
- 1.015093 6 0 ack 40 ------- 0 6.0 8.4 5 76
r 1.016363 8 1 tcp 1040 ------- 0 8.0 2.0 7 65
+ 1.016363 1 0 tcp 1040 ------- 0 8.0 2.0 7 65
- 1.016363 1 0 tcp 1040 ------- 0 8.0 2.0 7 65
r 1.017195 8 1 tcp 1040 ------- 0 8.0 2.0 8 66
+ 1.017195 1 0 tcp 1040 ------- 0 8.0 2.0 8 66
r 1.017717 1 8 ack 40 ------- 1 3.0 8.1 3 54
+ 1.017717 8 1 tcp 1040 ------- 1 8.1 3.0 7 77
- 1.017717 8 1 tcp 1040 ------- 1 8.1 3.0 7 77
+ 1.017717 8 1 tcp 1040 ------- 1 8.1 3.0 8 78
r 1.018485 5 0 ack 40 ------- 0 5.0 8.3 6 67
+ 1.018485 0 1 ack 40 ------- 0 5.0 8.3 6 67
- 1.018485 0 1 ack 40 ------- 0 5.0 8.3 6 67
- 1.018549 8 1 tcp 1040 ------- 1 8.1 3.0 8 78
r 1.019872 0 1 ack 40 ------- 0 4.0 8.2 3 58
+ 1.019872 1 8 ack 40 ------- 0 4.0 8.2 3 58
- 1.019872 1 8 ack 40 ------- 0 4.0 8.2 3 58
r 1.02064 0 6 tcp 1040 ------- 0 8.4 6.0 6 49
+ 1.02064 6 0 ack 40 ------- 0 6.0 8.4 6 79
- 1.02064 6 0 ack 40 ------- 0 6.0 8.4 6 79
r 1.021909 8 1 tcp 1040 ------- 0 8.0 2.0 9 68
+ 1.021909 1 0 tcp 1040 ------- 0 8.0 2.0 9 68
- 1.021909 1 0 tcp 1040 ------- 0 8.0 2.0 8 66
r 1.022741 8 1 tcp 1040 ------- 0 8.0 2.0 10 69
+ 1.022741 1 0 tcp 1040 ------- 0 8.0 2.0 10 69
r 1.023264 1 8 ack 40 ------- 1 3.0 8.1 4 55
+ 1.023264 8 1 tcp 1040 ------- 1 8.1 3.0 9 80
- 1.023264 8 1 tcp 1040 ------- 1 8.1 3.0 9 80
+ 1.023264 8 1 tcp 1040 ------- 1 8.1 3.0 10 81
r 1.024032 6 0 ack 40 ------- 0 6.0 8.4 3 70
+ 1.024032 0 1 ack 40 ------- 0 6.0 8.4 3 70
- 1.024032 0 1 ack 40 ------- 0 6.0 8.4 3 70
- 1.024096 8 1 tcp 1040 ------- 1 8.1 3.0 10 81
r 1.025419 0 1 ack 40 ------- 0 4.0 8.2 4 59
+ 1.025419 1 8 ack 40 ------- 0 4.0 8.2 4 59
- 1.025419 1 8 ack 40 ------- 0 4.0 8.2 4 59
- 1.027456 1 0 tcp 1040 ------- 0 8.0 2.0 9 68
r 1.027456 8 1 tcp 1040 ------- 0 8.0 2.0 11 71
+ 1.027456 1 0 tcp 1040 ------- 0 8.0 2.0 11 71
r 1.028288 8 1 tcp 1040 ------- 0 8.0 2.0 12 72
+ 1.028288 1 0 tcp 1040 ------- 0 8.0 2.0 12 72
r 1.028811 1 8 ack 40 ------- 1 3.0 8.1 5 56
+ 1.028811 8 1 tcp 1040 ------- 1 8.1 3.0 11 82
- 1.028811 8 1 tcp 1040 ------- 1 8.1 3.0 11 82
+ 1.028811 8 1 tcp 1040 ------- 1 8.1 3.0 12 83
r 1.029579 6 0 ack 40 ------- 0 6.0 8.4 4 73
+ 1.029579 0 1 ack 40 ------- 0 6.0 8.4 4 73
- 1.029579 0 1 ack 40 ------- 0 6.0 8.4 4 73
- 1.029643 8 1 tcp 1040 ------- 1 8.1 3.0 12 83
r 1.030965 0 1 ack 40 ------- 0 4.0 8.2 5 60
+ 1.030965 1 8 ack 40 ------- 0 4.0 8.2 5 60
- 1.030965 1 8 ack 40 ------- 0 4.0 8.2 5 60
- 1.033003 1 0 tcp 1040 ------- 0 8.0 2.0 10 69
r 1.033003 8 1 tcp 1040 ------- 0 8.0 2.0 13 74
+ 1.033003 1 0 tcp 1040 ------- 0 8.0 2.0 13 74
r 1.033835 8 1 tcp 1040 ------- 0 8.0 2.0 14 75
+ 1.033835 1 0 tcp 1040 ------- 0 8.0 2.0 14 75
r 1.034357 1 8 ack 40 ------- 1 3.0 8.1 6 57
+ 1.034357 8 1 tcp 1040 ------- 1 8.1 3.0 13 84
- 1.034357 8 1 tcp 1040 ------- 1 8.1 3.0 13 84
+ 1.034357 8 1 tcp 1040 ------- 1 8.1 3.0 14 85
r 1.035125 6 0 ack 40 ------- 0 6.0 8.4 5 76
+ 1.035125 0 1 ack 40 ------- 0 6.0 8.4 5 76
- 1.035125 0 1 ack 40 ------- 0 6.0 8.4 5 76
- 1.035189 8 1 tcp 1040 ------- 1 8.1 3.0 14 85
r 1.036512 0 1 ack 40 ------- 0 4.0 8.2 6 61
+ 1.036512 1 8 ack 40 ------- 0 4.0 8.2 6 61
- 1.036512 1 8 ack 40 ------- 0 4.0 8.2 6 61
- 1.038549 1 0 tcp 1040 ------- 0 8.0 2.0 11 71
r 1.038549 8 1 tcp 1040 ------- 1 8.1 3.0 7 77
+ 1.038549 1 0 tcp 1040 ------- 1 8.1 3.0 7 77
r 1.039381 8 1 tcp 1040 ------- 1 8.1 3.0 8 78
+ 1.039381 1 0 tcp 1040 ------- 1 8.1 3.0 8 78
r 1.039904 1 8 ack 40 ------- 0 4.0 8.2 3 58
+ 1.039904 8 1 tcp 1040 ------- 0 8.2 4.0 7 86
- 1.039904 8 1 tcp 1040 ------- 0 8.2 4.0 7 86
+ 1.039904 8 1 tcp 1040 ------- 0 8.2 4.0 8 87
r 1.040672 6 0 ack 40 ------- 0 6.0 8.4 6 79
+ 1.040672 0 1 ack 40 ------- 0 6.0 8.4 6 79
- 1.040672 0 1 ack 40 ------- 0 6.0 8.4 6 79